<?xml version="1.0" encoding="UTF-8"?>

<!-- generated on 2025-03-17 15:36:32 by Eclipse SUMO GUI Version 1.18.0
<configuration xmlns:xsi="http://www.w3.org/2001/XMLSchema-instance" xsi:noNamespaceSchemaLocation="http://sumo.dlr.de/xsd/sumoConfiguration.xsd">

    <input>
        <net-file value="data/1ramp_2x2x3/ramp.net.xml"/>
        <route-files value="data/1ramp_2x2x3/ramp.rou.xml"/>
        <additional-files value="data/1ramp_2x2x3/ramp.add.xml"/>
    </input>

    <traci_server>
        <remote-port value="35445"/>
    </traci_server>

    <gui_only>
        <gui-settings-file value="data/1ramp_2x2x3/ramp.view.xml"/>
    </gui_only>

</configuration>
-->

<detector xmlns:xsi="http://www.w3.org/2001/XMLSchema-instance" xsi:noNamespaceSchemaLocation="http://sumo.dlr.de/xsd/det_e1_file.xsd">
    <interval begin="0.00" end="300.00" id="on_ramp_queue_sens_0" nVehContrib="0" flow="0.00" occupancy="0.00" speed="-1.00" harmonicMeanSpeed="-1.00" length="-1.00" nVehEntered="0"/>
    <interval begin="300.00" end="600.00" id="on_ramp_queue_sens_0" nVehContrib="3" flow="36.00" occupancy="2.54" speed="1.98" harmonicMeanSpeed="1.97" length="5.00" nVehEntered="3"/>
    <interval begin="600.00" end="770.00" id="on_ramp_queue_sens_0" nVehContrib="1" flow="21.18" occupancy="2.10" speed="1.40" harmonicMeanSpeed="1.40" length="5.00" nVehEntered="1"/>
</detector>
