<?xml version="1.0" encoding="UTF-8"?>

<!-- generated on 2025-03-18 11:01:37 by Eclipse SUMO GUI Version 1.18.0
<configuration xmlns:xsi="http://www.w3.org/2001/XMLSchema-instance" xsi:noNamespaceSchemaLocation="http://sumo.dlr.de/xsd/sumoConfiguration.xsd">

    <input>
        <net-file value="data/1ramp_2x2x3/ramp.net.xml"/>
        <route-files value="data/1ramp_2x2x3/ramp.rou.xml"/>
        <additional-files value="data/1ramp_2x2x3/ramp.add.xml"/>
    </input>

    <traci_server>
        <remote-port value="56893"/>
    </traci_server>

    <random_number>
        <seed value="42"/>
    </random_number>

    <gui_only>
        <gui-settings-file value="data/1ramp_2x2x3/ramp.view.xml"/>
    </gui_only>

</configuration>
-->

<detector xmlns:xsi="http://www.w3.org/2001/XMLSchema-instance" xsi:noNamespaceSchemaLocation="http://sumo.dlr.de/xsd/det_e1_file.xsd">
    <interval begin="0.00" end="20.00" id="on_ramp_queue_sens_1" nVehContrib="0" flow="0.00" occupancy="0.00" speed="-1.00" harmonicMeanSpeed="-1.00" length="-1.00" nVehEntered="0"/>
    <interval begin="20.00" end="40.00" id="on_ramp_queue_sens_1" nVehContrib="0" flow="0.00" occupancy="0.00" speed="-1.00" harmonicMeanSpeed="-1.00" length="-1.00" nVehEntered="0"/>
    <interval begin="40.00" end="60.00" id="on_ramp_queue_sens_1" nVehContrib="0" flow="0.00" occupancy="0.00" speed="-1.00" harmonicMeanSpeed="-1.00" length="-1.00" nVehEntered="0"/>
    <interval begin="60.00" end="80.00" id="on_ramp_queue_sens_1" nVehContrib="0" flow="0.00" occupancy="0.00" speed="-1.00" harmonicMeanSpeed="-1.00" length="-1.00" nVehEntered="0"/>
    <interval begin="80.00" end="100.00" id="on_ramp_queue_sens_1" nVehContrib="0" flow="0.00" occupancy="0.00" speed="-1.00" harmonicMeanSpeed="-1.00" length="-1.00" nVehEntered="0"/>
    <interval begin="100.00" end="120.00" id="on_ramp_queue_sens_1" nVehContrib="0" flow="0.00" occupancy="0.00" speed="-1.00" harmonicMeanSpeed="-1.00" length="-1.00" nVehEntered="0"/>
    <interval begin="120.00" end="140.00" id="on_ramp_queue_sens_1" nVehContrib="1" flow="180.00" occupancy="11.38" speed="2.20" harmonicMeanSpeed="2.20" length="5.00" nVehEntered="1"/>
    <interval begin="140.00" end="160.00" id="on_ramp_queue_sens_1" nVehContrib="0" flow="0.00" occupancy="0.00" speed="-1.00" harmonicMeanSpeed="-1.00" length="-1.00" nVehEntered="0"/>
    <interval begin="160.00" end="180.00" id="on_ramp_queue_sens_1" nVehContrib="0" flow="0.00" occupancy="0.00" speed="-1.00" harmonicMeanSpeed="-1.00" length="-1.00" nVehEntered="0"/>
    <interval begin="180.00" end="200.00" id="on_ramp_queue_sens_1" nVehContrib="1" flow="180.00" occupancy="9.72" speed="2.57" harmonicMeanSpeed="2.57" length="5.00" nVehEntered="1"/>
    <interval begin="200.00" end="220.00" id="on_ramp_queue_sens_1" nVehContrib="0" flow="0.00" occupancy="0.00" speed="-1.00" harmonicMeanSpeed="-1.00" length="-1.00" nVehEntered="0"/>
    <interval begin="220.00" end="226.00" id="on_ramp_queue_sens_1" nVehContrib="0" flow="0.00" occupancy="0.00" speed="-1.00" harmonicMeanSpeed="-1.00" length="-1.00" nVehEntered="0"/>
</detector>
