<?xml version="1.0" encoding="UTF-8"?>

<!-- generated on 2025-03-17 15:37:27 by Eclipse SUMO GUI Version 1.18.0
<configuration xmlns:xsi="http://www.w3.org/2001/XMLSchema-instance" xsi:noNamespaceSchemaLocation="http://sumo.dlr.de/xsd/sumoConfiguration.xsd">

    <input>
        <net-file value="data/1ramp_2x1x3/ramp.net.xml"/>
        <route-files value="data/1ramp_2x1x3/ramp.rou.xml"/>
        <additional-files value="data/1ramp_2x1x3/ramp.add.xml"/>
    </input>

    <traci_server>
        <remote-port value="33415"/>
    </traci_server>

    <gui_only>
        <gui-settings-file value="data/1ramp_2x1x3/ramp.view.xml"/>
    </gui_only>

</configuration>
-->

<detector xmlns:xsi="http://www.w3.org/2001/XMLSchema-instance" xsi:noNamespaceSchemaLocation="http://sumo.dlr.de/xsd/det_e1_file.xsd">
    <interval begin="0.00" end="129.00" id="on_ramp_queue_sens_0" nVehContrib="24" flow="669.77" occupancy="43.39" speed="2.54" harmonicMeanSpeed="2.23" length="5.00" nVehEntered="25"/>
</detector>
