<?xml version="1.0" encoding="UTF-8"?>

<!-- generated on 2025-03-17 15:37:27 by Eclipse SUMO GUI Version 1.18.0
<configuration xmlns:xsi="http://www.w3.org/2001/XMLSchema-instance" xsi:noNamespaceSchemaLocation="http://sumo.dlr.de/xsd/sumoConfiguration.xsd">

    <input>
        <net-file value="data/1ramp_2x1x3/ramp.net.xml"/>
        <route-files value="data/1ramp_2x1x3/ramp.rou.xml"/>
        <additional-files value="data/1ramp_2x1x3/ramp.add.xml"/>
    </input>

    <traci_server>
        <remote-port value="33415"/>
    </traci_server>

    <gui_only>
        <gui-settings-file value="data/1ramp_2x1x3/ramp.view.xml"/>
    </gui_only>

</configuration>
-->

<detector xmlns:xsi="http://www.w3.org/2001/XMLSchema-instance" xsi:noNamespaceSchemaLocation="http://sumo.dlr.de/xsd/det_e1_file.xsd">
    <interval begin="0.00" end="129.00" id="passage_queue_sens" nVehContrib="27" flow="753.49" occupancy="17.05" speed="6.85" harmonicMeanSpeed="6.14" length="5.00" nVehEntered="27"/>
</detector>
