<?xml version="1.0" encoding="UTF-8"?>

<!-- generated on 2025-03-14 15:29:56 by Eclipse SUMO sumo Version 1.18.0
<configuration xmlns:xsi="http://www.w3.org/2001/XMLSchema-instance" xsi:noNamespaceSchemaLocation="http://sumo.dlr.de/xsd/sumoConfiguration.xsd">

    <input>
        <net-file value="ramp.net.xml"/>
        <route-files value="ramp.rou.xml"/>
        <additional-files value="ramp.add.xml"/>
    </input>

    <traci_server>
        <remote-port value="47617"/>
    </traci_server>

    <random_number>
        <seed value="42"/>
    </random_number>

    <gui_only>
        <gui-settings-file value="ramp.view.xml"/>
    </gui_only>

</configuration>
-->

<detector xmlns:xsi="http://www.w3.org/2001/XMLSchema-instance" xsi:noNamespaceSchemaLocation="http://sumo.dlr.de/xsd/det_e1_file.xsd">
    <interval begin="0.00" end="20.00" id="passage_queue_sens" nVehContrib="2" flow="360.00" occupancy="4.40" speed="11.73" harmonicMeanSpeed="11.36" length="5.00" nVehEntered="2"/>
    <interval begin="20.00" end="40.00" id="passage_queue_sens" nVehContrib="1" flow="180.00" occupancy="1.34" speed="18.71" harmonicMeanSpeed="18.71" length="5.00" nVehEntered="1"/>
    <interval begin="40.00" end="60.00" id="passage_queue_sens" nVehContrib="2" flow="360.00" occupancy="4.11" speed="13.20" harmonicMeanSpeed="12.17" length="5.00" nVehEntered="2"/>
    <interval begin="60.00" end="80.00" id="passage_queue_sens" nVehContrib="0" flow="0.00" occupancy="0.00" speed="-1.00" harmonicMeanSpeed="-1.00" length="-1.00" nVehEntered="0"/>
    <interval begin="80.00" end="100.00" id="passage_queue_sens" nVehContrib="2" flow="360.00" occupancy="7.98" speed="6.27" harmonicMeanSpeed="6.27" length="5.00" nVehEntered="2"/>
    <interval begin="100.00" end="120.00" id="passage_queue_sens" nVehContrib="0" flow="0.00" occupancy="0.00" speed="-1.00" harmonicMeanSpeed="-1.00" length="-1.00" nVehEntered="0"/>
    <interval begin="120.00" end="140.00" id="passage_queue_sens" nVehContrib="2" flow="360.00" occupancy="14.59" speed="3.76" harmonicMeanSpeed="3.43" length="5.00" nVehEntered="2"/>
    <interval begin="140.00" end="160.00" id="passage_queue_sens" nVehContrib="2" flow="360.00" occupancy="7.19" speed="7.88" harmonicMeanSpeed="7.81" length="5.00" nVehEntered="3"/>
    <interval begin="160.00" end="180.00" id="passage_queue_sens" nVehContrib="4" flow="720.00" occupancy="18.71" speed="5.25" harmonicMeanSpeed="5.13" length="5.00" nVehEntered="3"/>
    <interval begin="180.00" end="200.00" id="passage_queue_sens" nVehContrib="0" flow="0.00" occupancy="3.31" speed="-1.00" harmonicMeanSpeed="-1.00" length="-1.00" nVehEntered="1"/>
    <interval begin="200.00" end="220.00" id="passage_queue_sens" nVehContrib="2" flow="360.00" occupancy="6.52" speed="5.14" harmonicMeanSpeed="5.09" length="5.00" nVehEntered="1"/>
    <interval begin="220.00" end="240.00" id="passage_queue_sens" nVehContrib="3" flow="540.00" occupancy="7.88" speed="10.76" harmonicMeanSpeed="9.52" length="5.00" nVehEntered="3"/>
    <interval begin="240.00" end="260.00" id="passage_queue_sens" nVehContrib="0" flow="0.00" occupancy="0.00" speed="-1.00" harmonicMeanSpeed="-1.00" length="-1.00" nVehEntered="0"/>
    <interval begin="260.00" end="280.00" id="passage_queue_sens" nVehContrib="0" flow="0.00" occupancy="9.98" speed="-1.00" harmonicMeanSpeed="-1.00" length="-1.00" nVehEntered="1"/>
    <interval begin="280.00" end="300.00" id="passage_queue_sens" nVehContrib="3" flow="540.00" occupancy="8.11" speed="5.12" harmonicMeanSpeed="4.14" length="5.00" nVehEntered="2"/>
    <interval begin="300.00" end="320.00" id="passage_queue_sens" nVehContrib="3" flow="540.00" occupancy="12.33" speed="6.10" harmonicMeanSpeed="6.08" length="5.00" nVehEntered="3"/>
    <interval begin="320.00" end="340.00" id="passage_queue_sens" nVehContrib="1" flow="180.00" occupancy="4.69" speed="5.33" harmonicMeanSpeed="5.33" length="5.00" nVehEntered="1"/>
    <interval begin="340.00" end="360.00" id="passage_queue_sens" nVehContrib="2" flow="360.00" occupancy="9.07" speed="5.53" harmonicMeanSpeed="5.51" length="5.00" nVehEntered="2"/>
    <interval begin="360.00" end="380.00" id="passage_queue_sens" nVehContrib="1" flow="180.00" occupancy="14.21" speed="1.76" harmonicMeanSpeed="1.76" length="5.00" nVehEntered="1"/>
    <interval begin="380.00" end="400.00" id="passage_queue_sens" nVehContrib="1" flow="180.00" occupancy="4.97" speed="5.03" harmonicMeanSpeed="5.03" length="5.00" nVehEntered="1"/>
    <interval begin="400.00" end="420.00" id="passage_queue_sens" nVehContrib="1" flow="180.00" occupancy="4.16" speed="6.01" harmonicMeanSpeed="6.01" length="5.00" nVehEntered="1"/>
    <interval begin="420.00" end="440.00" id="passage_queue_sens" nVehContrib="3" flow="540.00" occupancy="30.64" speed="2.59" harmonicMeanSpeed="2.45" length="5.00" nVehEntered="3"/>
    <interval begin="440.00" end="460.00" id="passage_queue_sens" nVehContrib="1" flow="180.00" occupancy="12.22" speed="3.85" harmonicMeanSpeed="3.85" length="5.00" nVehEntered="2"/>
    <interval begin="460.00" end="480.00" id="passage_queue_sens" nVehContrib="3" flow="540.00" occupancy="13.95" speed="4.17" harmonicMeanSpeed="3.81" length="5.00" nVehEntered="2"/>
    <interval begin="480.00" end="500.00" id="passage_queue_sens" nVehContrib="3" flow="540.00" occupancy="8.28" speed="9.62" harmonicMeanSpeed="9.06" length="5.00" nVehEntered="3"/>
    <interval begin="500.00" end="520.00" id="passage_queue_sens" nVehContrib="1" flow="180.00" occupancy="3.39" speed="7.39" harmonicMeanSpeed="7.39" length="5.00" nVehEntered="1"/>
    <interval begin="520.00" end="540.00" id="passage_queue_sens" nVehContrib="1" flow="180.00" occupancy="4.00" speed="6.25" harmonicMeanSpeed="6.25" length="5.00" nVehEntered="1"/>
    <interval begin="540.00" end="560.00" id="passage_queue_sens" nVehContrib="1" flow="180.00" occupancy="3.95" speed="6.33" harmonicMeanSpeed="6.33" length="5.00" nVehEntered="1"/>
    <interval begin="560.00" end="580.00" id="passage_queue_sens" nVehContrib="2" flow="360.00" occupancy="8.92" speed="5.68" harmonicMeanSpeed="5.61" length="5.00" nVehEntered="2"/>
    <interval begin="580.00" end="600.00" id="passage_queue_sens" nVehContrib="1" flow="180.00" occupancy="4.14" speed="6.03" harmonicMeanSpeed="6.03" length="5.00" nVehEntered="1"/>
    <interval begin="600.00" end="620.00" id="passage_queue_sens" nVehContrib="3" flow="540.00" occupancy="11.09" speed="6.78" harmonicMeanSpeed="6.76" length="5.00" nVehEntered="3"/>
    <interval begin="620.00" end="640.00" id="passage_queue_sens" nVehContrib="1" flow="180.00" occupancy="5.18" speed="4.83" harmonicMeanSpeed="4.83" length="5.00" nVehEntered="1"/>
    <interval begin="640.00" end="660.00" id="passage_queue_sens" nVehContrib="2" flow="360.00" occupancy="7.78" speed="6.54" harmonicMeanSpeed="6.43" length="5.00" nVehEntered="2"/>
    <interval begin="660.00" end="680.00" id="passage_queue_sens" nVehContrib="2" flow="360.00" occupancy="7.87" speed="6.39" harmonicMeanSpeed="6.36" length="5.00" nVehEntered="2"/>
    <interval begin="680.00" end="700.00" id="passage_queue_sens" nVehContrib="1" flow="180.00" occupancy="4.57" speed="5.47" harmonicMeanSpeed="5.47" length="5.00" nVehEntered="1"/>
    <interval begin="700.00" end="720.00" id="passage_queue_sens" nVehContrib="1" flow="180.00" occupancy="10.43" speed="3.32" harmonicMeanSpeed="3.32" length="5.00" nVehEntered="2"/>
    <interval begin="720.00" end="740.00" id="passage_queue_sens" nVehContrib="2" flow="360.00" occupancy="6.05" speed="5.63" harmonicMeanSpeed="5.58" length="5.00" nVehEntered="1"/>
    <interval begin="740.00" end="760.00" id="passage_queue_sens" nVehContrib="1" flow="180.00" occupancy="8.28" speed="3.02" harmonicMeanSpeed="3.02" length="5.00" nVehEntered="1"/>
    <interval begin="760.00" end="780.00" id="passage_queue_sens" nVehContrib="2" flow="360.00" occupancy="15.60" speed="3.37" harmonicMeanSpeed="3.20" length="5.00" nVehEntered="2"/>
    <interval begin="780.00" end="800.00" id="passage_queue_sens" nVehContrib="2" flow="360.00" occupancy="10.21" speed="5.28" harmonicMeanSpeed="4.90" length="5.00" nVehEntered="2"/>
    <interval begin="800.00" end="820.00" id="passage_queue_sens" nVehContrib="1" flow="180.00" occupancy="3.66" speed="6.84" harmonicMeanSpeed="6.84" length="5.00" nVehEntered="1"/>
    <interval begin="820.00" end="840.00" id="passage_queue_sens" nVehContrib="3" flow="540.00" occupancy="10.58" speed="7.22" harmonicMeanSpeed="7.09" length="5.00" nVehEntered="3"/>
    <interval begin="840.00" end="860.00" id="passage_queue_sens" nVehContrib="2" flow="360.00" occupancy="9.45" speed="6.45" harmonicMeanSpeed="6.25" length="5.00" nVehEntered="3"/>
    <interval begin="860.00" end="880.00" id="passage_queue_sens" nVehContrib="2" flow="360.00" occupancy="3.75" speed="9.98" harmonicMeanSpeed="9.63" length="5.00" nVehEntered="1"/>
    <interval begin="880.00" end="900.00" id="passage_queue_sens" nVehContrib="1" flow="180.00" occupancy="4.02" speed="6.22" harmonicMeanSpeed="6.22" length="5.00" nVehEntered="1"/>
    <interval begin="900.00" end="920.00" id="passage_queue_sens" nVehContrib="2" flow="360.00" occupancy="8.56" speed="5.85" harmonicMeanSpeed="5.84" length="5.00" nVehEntered="2"/>
    <interval begin="920.00" end="940.00" id="passage_queue_sens" nVehContrib="2" flow="360.00" occupancy="6.81" speed="7.71" harmonicMeanSpeed="7.35" length="5.00" nVehEntered="2"/>
    <interval begin="940.00" end="960.00" id="passage_queue_sens" nVehContrib="1" flow="180.00" occupancy="4.52" speed="5.53" harmonicMeanSpeed="5.53" length="5.00" nVehEntered="1"/>
    <interval begin="960.00" end="980.00" id="passage_queue_sens" nVehContrib="1" flow="180.00" occupancy="7.85" speed="3.92" harmonicMeanSpeed="3.92" length="5.00" nVehEntered="2"/>
    <interval begin="980.00" end="1000.00" id="passage_queue_sens" nVehContrib="2" flow="360.00" occupancy="6.78" speed="6.13" harmonicMeanSpeed="6.06" length="5.00" nVehEntered="1"/>
    <interval begin="1000.00" end="1020.00" id="passage_queue_sens" nVehContrib="3" flow="540.00" occupancy="12.76" speed="6.99" harmonicMeanSpeed="5.88" length="5.00" nVehEntered="3"/>
    <interval begin="1020.00" end="1040.00" id="passage_queue_sens" nVehContrib="1" flow="180.00" occupancy="4.23" speed="5.90" harmonicMeanSpeed="5.90" length="5.00" nVehEntered="1"/>
    <interval begin="1040.00" end="1060.00" id="passage_queue_sens" nVehContrib="2" flow="360.00" occupancy="8.39" speed="5.97" harmonicMeanSpeed="5.96" length="5.00" nVehEntered="2"/>
    <interval begin="1060.00" end="1080.00" id="passage_queue_sens" nVehContrib="2" flow="360.00" occupancy="4.55" speed="11.30" harmonicMeanSpeed="10.98" length="5.00" nVehEntered="2"/>
    <interval begin="1080.00" end="1100.00" id="passage_queue_sens" nVehContrib="1" flow="180.00" occupancy="1.68" speed="14.92" harmonicMeanSpeed="14.92" length="5.00" nVehEntered="1"/>
    <interval begin="1100.00" end="1120.00" id="passage_queue_sens" nVehContrib="1" flow="180.00" occupancy="6.39" speed="3.92" harmonicMeanSpeed="3.92" length="5.00" nVehEntered="1"/>
    <interval begin="1120.00" end="1140.00" id="passage_queue_sens" nVehContrib="0" flow="0.00" occupancy="0.00" speed="-1.00" harmonicMeanSpeed="-1.00" length="-1.00" nVehEntered="0"/>
    <interval begin="1140.00" end="1160.00" id="passage_queue_sens" nVehContrib="1" flow="180.00" occupancy="25.27" speed="0.99" harmonicMeanSpeed="0.99" length="5.00" nVehEntered="1"/>
    <interval begin="1160.00" end="1180.00" id="passage_queue_sens" nVehContrib="2" flow="360.00" occupancy="14.89" speed="3.36" harmonicMeanSpeed="3.36" length="5.00" nVehEntered="2"/>
    <interval begin="1180.00" end="1200.00" id="passage_queue_sens" nVehContrib="1" flow="180.00" occupancy="11.56" speed="3.54" harmonicMeanSpeed="3.54" length="5.00" nVehEntered="2"/>
    <interval begin="1200.00" end="1220.00" id="passage_queue_sens" nVehContrib="3" flow="540.00" occupancy="9.42" speed="5.46" harmonicMeanSpeed="5.39" length="5.00" nVehEntered="2"/>
    <interval begin="1220.00" end="1240.00" id="passage_queue_sens" nVehContrib="2" flow="360.00" occupancy="8.79" speed="5.86" harmonicMeanSpeed="5.69" length="5.00" nVehEntered="2"/>
    <interval begin="1240.00" end="1260.00" id="passage_queue_sens" nVehContrib="1" flow="180.00" occupancy="3.44" speed="7.27" harmonicMeanSpeed="7.27" length="5.00" nVehEntered="1"/>
    <interval begin="1260.00" end="1280.00" id="passage_queue_sens" nVehContrib="1" flow="180.00" occupancy="8.75" speed="5.40" harmonicMeanSpeed="5.40" length="5.00" nVehEntered="2"/>
    <interval begin="1280.00" end="1300.00" id="passage_queue_sens" nVehContrib="2" flow="360.00" occupancy="4.79" speed="5.86" harmonicMeanSpeed="5.61" length="5.00" nVehEntered="1"/>
    <interval begin="1300.00" end="1320.00" id="passage_queue_sens" nVehContrib="3" flow="540.00" occupancy="15.30" speed="4.96" harmonicMeanSpeed="4.90" length="5.00" nVehEntered="3"/>
    <interval begin="1320.00" end="1340.00" id="passage_queue_sens" nVehContrib="2" flow="360.00" occupancy="8.72" speed="5.83" harmonicMeanSpeed="5.73" length="5.00" nVehEntered="2"/>
    <interval begin="1340.00" end="1360.00" id="passage_queue_sens" nVehContrib="3" flow="540.00" occupancy="11.08" speed="6.78" harmonicMeanSpeed="6.77" length="5.00" nVehEntered="3"/>
    <interval begin="1360.00" end="1380.00" id="passage_queue_sens" nVehContrib="1" flow="180.00" occupancy="3.40" speed="7.35" harmonicMeanSpeed="7.35" length="5.00" nVehEntered="1"/>
    <interval begin="1380.00" end="1400.00" id="passage_queue_sens" nVehContrib="1" flow="180.00" occupancy="14.04" speed="8.06" harmonicMeanSpeed="8.06" length="5.00" nVehEntered="2"/>
    <interval begin="1400.00" end="1420.00" id="passage_queue_sens" nVehContrib="3" flow="540.00" occupancy="31.54" speed="2.47" harmonicMeanSpeed="1.77" length="5.00" nVehEntered="2"/>
    <interval begin="1420.00" end="1440.00" id="passage_queue_sens" nVehContrib="3" flow="540.00" occupancy="31.01" speed="5.10" harmonicMeanSpeed="2.42" length="5.00" nVehEntered="3"/>
    <interval begin="1440.00" end="1460.00" id="passage_queue_sens" nVehContrib="1" flow="180.00" occupancy="3.71" speed="6.78" harmonicMeanSpeed="6.78" length="5.00" nVehEntered="2"/>
    <interval begin="1460.00" end="1480.00" id="passage_queue_sens" nVehContrib="4" flow="720.00" occupancy="16.80" speed="5.99" harmonicMeanSpeed="5.95" length="5.00" nVehEntered="3"/>
    <interval begin="1480.00" end="1500.00" id="passage_queue_sens" nVehContrib="2" flow="360.00" occupancy="8.99" speed="7.23" harmonicMeanSpeed="7.21" length="5.00" nVehEntered="3"/>
    <interval begin="1500.00" end="1520.00" id="passage_queue_sens" nVehContrib="4" flow="720.00" occupancy="11.31" speed="7.82" harmonicMeanSpeed="7.48" length="5.00" nVehEntered="3"/>
    <interval begin="1520.00" end="1540.00" id="passage_queue_sens" nVehContrib="2" flow="360.00" occupancy="13.72" speed="4.00" harmonicMeanSpeed="3.64" length="5.00" nVehEntered="2"/>
    <interval begin="1540.00" end="1560.00" id="passage_queue_sens" nVehContrib="3" flow="540.00" occupancy="13.05" speed="5.97" harmonicMeanSpeed="5.75" length="5.00" nVehEntered="3"/>
    <interval begin="1560.00" end="1580.00" id="passage_queue_sens" nVehContrib="3" flow="540.00" occupancy="11.06" speed="6.82" harmonicMeanSpeed="6.78" length="5.00" nVehEntered="3"/>
    <interval begin="1580.00" end="1600.00" id="passage_queue_sens" nVehContrib="1" flow="180.00" occupancy="4.18" speed="5.98" harmonicMeanSpeed="5.98" length="5.00" nVehEntered="1"/>
    <interval begin="1600.00" end="1620.00" id="passage_queue_sens" nVehContrib="3" flow="540.00" occupancy="15.79" speed="6.01" harmonicMeanSpeed="4.75" length="5.00" nVehEntered="3"/>
    <interval begin="1620.00" end="1640.00" id="passage_queue_sens" nVehContrib="2" flow="360.00" occupancy="7.25" speed="7.01" harmonicMeanSpeed="6.89" length="5.00" nVehEntered="2"/>
    <interval begin="1640.00" end="1660.00" id="passage_queue_sens" nVehContrib="2" flow="360.00" occupancy="7.70" speed="6.54" harmonicMeanSpeed="6.49" length="5.00" nVehEntered="2"/>
    <interval begin="1660.00" end="1680.00" id="passage_queue_sens" nVehContrib="1" flow="180.00" occupancy="3.86" speed="6.48" harmonicMeanSpeed="6.48" length="5.00" nVehEntered="1"/>
    <interval begin="1680.00" end="1700.00" id="passage_queue_sens" nVehContrib="3" flow="540.00" occupancy="12.99" speed="5.88" harmonicMeanSpeed="5.78" length="5.00" nVehEntered="3"/>
    <interval begin="1700.00" end="1720.00" id="passage_queue_sens" nVehContrib="1" flow="180.00" occupancy="3.90" speed="6.42" harmonicMeanSpeed="6.42" length="5.00" nVehEntered="1"/>
    <interval begin="1720.00" end="1740.00" id="passage_queue_sens" nVehContrib="2" flow="360.00" occupancy="9.45" speed="5.40" harmonicMeanSpeed="5.29" length="5.00" nVehEntered="2"/>
    <interval begin="1740.00" end="1760.00" id="passage_queue_sens" nVehContrib="1" flow="180.00" occupancy="6.82" speed="5.16" harmonicMeanSpeed="5.16" length="5.00" nVehEntered="2"/>
    <interval begin="1760.00" end="1780.00" id="passage_queue_sens" nVehContrib="2" flow="360.00" occupancy="13.30" speed="3.78" harmonicMeanSpeed="3.27" length="5.00" nVehEntered="1"/>
    <interval begin="1780.00" end="1800.00" id="passage_queue_sens" nVehContrib="2" flow="360.00" occupancy="15.40" speed="4.57" harmonicMeanSpeed="4.47" length="5.00" nVehEntered="3"/>
    <interval begin="1800.00" end="1820.00" id="passage_queue_sens" nVehContrib="2" flow="360.00" occupancy="10.70" speed="4.05" harmonicMeanSpeed="3.35" length="5.00" nVehEntered="1"/>
    <interval begin="1820.00" end="1840.00" id="passage_queue_sens" nVehContrib="3" flow="540.00" occupancy="11.69" speed="6.50" harmonicMeanSpeed="6.41" length="5.00" nVehEntered="3"/>
    <interval begin="1840.00" end="1860.00" id="passage_queue_sens" nVehContrib="1" flow="180.00" occupancy="3.80" speed="6.58" harmonicMeanSpeed="6.58" length="5.00" nVehEntered="1"/>
    <interval begin="1860.00" end="1880.00" id="passage_queue_sens" nVehContrib="3" flow="540.00" occupancy="10.86" speed="6.92" harmonicMeanSpeed="6.90" length="5.00" nVehEntered="3"/>
    <interval begin="1880.00" end="1900.00" id="passage_queue_sens" nVehContrib="2" flow="360.00" occupancy="7.75" speed="6.45" harmonicMeanSpeed="6.45" length="5.00" nVehEntered="2"/>
    <interval begin="1900.00" end="1920.00" id="passage_queue_sens" nVehContrib="2" flow="360.00" occupancy="7.51" speed="6.69" harmonicMeanSpeed="6.65" length="5.00" nVehEntered="2"/>
    <interval begin="1920.00" end="1940.00" id="passage_queue_sens" nVehContrib="2" flow="360.00" occupancy="7.89" speed="6.54" harmonicMeanSpeed="6.33" length="5.00" nVehEntered="2"/>
    <interval begin="1940.00" end="1960.00" id="passage_queue_sens" nVehContrib="2" flow="360.00" occupancy="10.63" speed="4.75" harmonicMeanSpeed="4.71" length="5.00" nVehEntered="2"/>
    <interval begin="1960.00" end="1980.00" id="passage_queue_sens" nVehContrib="1" flow="180.00" occupancy="6.23" speed="4.01" harmonicMeanSpeed="4.01" length="5.00" nVehEntered="1"/>
    <interval begin="1980.00" end="2000.00" id="passage_queue_sens" nVehContrib="3" flow="540.00" occupancy="15.34" speed="5.08" harmonicMeanSpeed="4.89" length="5.00" nVehEntered="3"/>
    <interval begin="2000.00" end="2020.00" id="passage_queue_sens" nVehContrib="3" flow="540.00" occupancy="13.53" speed="5.59" harmonicMeanSpeed="5.54" length="5.00" nVehEntered="3"/>
    <interval begin="2020.00" end="2040.00" id="passage_queue_sens" nVehContrib="1" flow="180.00" occupancy="3.82" speed="6.55" harmonicMeanSpeed="6.55" length="5.00" nVehEntered="1"/>
    <interval begin="2040.00" end="2060.00" id="passage_queue_sens" nVehContrib="3" flow="540.00" occupancy="13.24" speed="5.80" harmonicMeanSpeed="5.66" length="5.00" nVehEntered="3"/>
    <interval begin="2060.00" end="2080.00" id="passage_queue_sens" nVehContrib="1" flow="180.00" occupancy="4.15" speed="6.03" harmonicMeanSpeed="6.03" length="5.00" nVehEntered="1"/>
    <interval begin="2080.00" end="2100.00" id="passage_queue_sens" nVehContrib="2" flow="360.00" occupancy="13.11" speed="5.55" harmonicMeanSpeed="5.54" length="5.00" nVehEntered="3"/>
    <interval begin="2100.00" end="2120.00" id="passage_queue_sens" nVehContrib="3" flow="540.00" occupancy="20.26" speed="3.33" harmonicMeanSpeed="3.08" length="5.00" nVehEntered="2"/>
    <interval begin="2120.00" end="2140.00" id="passage_queue_sens" nVehContrib="3" flow="540.00" occupancy="16.58" speed="4.90" harmonicMeanSpeed="4.52" length="5.00" nVehEntered="3"/>
    <interval begin="2140.00" end="2160.00" id="passage_queue_sens" nVehContrib="1" flow="180.00" occupancy="5.06" speed="4.94" harmonicMeanSpeed="4.94" length="5.00" nVehEntered="1"/>
    <interval begin="2160.00" end="2180.00" id="passage_queue_sens" nVehContrib="3" flow="540.00" occupancy="10.50" speed="7.41" harmonicMeanSpeed="7.14" length="5.00" nVehEntered="3"/>
    <interval begin="2180.00" end="2200.00" id="passage_queue_sens" nVehContrib="1" flow="180.00" occupancy="14.00" speed="1.79" harmonicMeanSpeed="1.79" length="5.00" nVehEntered="1"/>
    <interval begin="2200.00" end="2220.00" id="passage_queue_sens" nVehContrib="2" flow="360.00" occupancy="9.61" speed="5.53" harmonicMeanSpeed="5.20" length="5.00" nVehEntered="2"/>
    <interval begin="2220.00" end="2240.00" id="passage_queue_sens" nVehContrib="1" flow="180.00" occupancy="7.07" speed="5.99" harmonicMeanSpeed="5.99" length="5.00" nVehEntered="2"/>
    <interval begin="2240.00" end="2260.00" id="passage_queue_sens" nVehContrib="3" flow="540.00" occupancy="8.50" speed="6.58" harmonicMeanSpeed="6.58" length="5.00" nVehEntered="2"/>
    <interval begin="2260.00" end="2280.00" id="passage_queue_sens" nVehContrib="2" flow="360.00" occupancy="9.44" speed="7.21" harmonicMeanSpeed="7.05" length="5.00" nVehEntered="3"/>
    <interval begin="2280.00" end="2300.00" id="passage_queue_sens" nVehContrib="3" flow="540.00" occupancy="9.34" speed="6.44" harmonicMeanSpeed="6.42" length="5.00" nVehEntered="2"/>
    <interval begin="2300.00" end="2320.00" id="passage_queue_sens" nVehContrib="3" flow="540.00" occupancy="10.95" speed="6.87" harmonicMeanSpeed="6.85" length="5.00" nVehEntered="3"/>
    <interval begin="2320.00" end="2340.00" id="passage_queue_sens" nVehContrib="2" flow="360.00" occupancy="9.09" speed="5.50" harmonicMeanSpeed="5.50" length="5.00" nVehEntered="2"/>
    <interval begin="2340.00" end="2360.00" id="passage_queue_sens" nVehContrib="2" flow="360.00" occupancy="9.07" speed="5.52" harmonicMeanSpeed="5.51" length="5.00" nVehEntered="2"/>
    <interval begin="2360.00" end="2380.00" id="passage_queue_sens" nVehContrib="2" flow="360.00" occupancy="12.74" speed="4.01" harmonicMeanSpeed="3.93" length="5.00" nVehEntered="2"/>
    <interval begin="2380.00" end="2400.00" id="passage_queue_sens" nVehContrib="3" flow="540.00" occupancy="20.24" speed="4.79" harmonicMeanSpeed="3.71" length="5.00" nVehEntered="3"/>
    <interval begin="2400.00" end="2420.00" id="passage_queue_sens" nVehContrib="1" flow="180.00" occupancy="4.52" speed="5.53" harmonicMeanSpeed="5.53" length="5.00" nVehEntered="1"/>
    <interval begin="2420.00" end="2440.00" id="passage_queue_sens" nVehContrib="4" flow="720.00" occupancy="14.88" speed="6.79" harmonicMeanSpeed="6.72" length="5.00" nVehEntered="4"/>
    <interval begin="2440.00" end="2460.00" id="passage_queue_sens" nVehContrib="1" flow="180.00" occupancy="4.96" speed="5.04" harmonicMeanSpeed="5.04" length="5.00" nVehEntered="1"/>
    <interval begin="2460.00" end="2480.00" id="passage_queue_sens" nVehContrib="2" flow="360.00" occupancy="8.91" speed="5.66" harmonicMeanSpeed="5.61" length="5.00" nVehEntered="2"/>
    <interval begin="2480.00" end="2500.00" id="passage_queue_sens" nVehContrib="1" flow="180.00" occupancy="16.34" speed="1.57" harmonicMeanSpeed="1.57" length="5.00" nVehEntered="2"/>
    <interval begin="2500.00" end="2520.00" id="passage_queue_sens" nVehContrib="3" flow="540.00" occupancy="29.45" speed="3.08" harmonicMeanSpeed="2.88" length="5.00" nVehEntered="3"/>
    <interval begin="2520.00" end="2540.00" id="passage_queue_sens" nVehContrib="3" flow="540.00" occupancy="11.70" speed="5.27" harmonicMeanSpeed="4.84" length="5.00" nVehEntered="2"/>
    <interval begin="2540.00" end="2560.00" id="passage_queue_sens" nVehContrib="2" flow="360.00" occupancy="7.04" speed="7.31" harmonicMeanSpeed="7.11" length="5.00" nVehEntered="2"/>
    <interval begin="2560.00" end="2580.00" id="passage_queue_sens" nVehContrib="2" flow="360.00" occupancy="8.41" speed="6.04" harmonicMeanSpeed="5.94" length="5.00" nVehEntered="2"/>
    <interval begin="2580.00" end="2600.00" id="passage_queue_sens" nVehContrib="2" flow="360.00" occupancy="12.15" speed="4.13" harmonicMeanSpeed="4.11" length="5.00" nVehEntered="2"/>
    <interval begin="2600.00" end="2620.00" id="passage_queue_sens" nVehContrib="2" flow="360.00" occupancy="11.45" speed="7.70" harmonicMeanSpeed="7.70" length="5.00" nVehEntered="3"/>
    <interval begin="2620.00" end="2640.00" id="passage_queue_sens" nVehContrib="3" flow="540.00" occupancy="7.05" speed="6.50" harmonicMeanSpeed="6.25" length="5.00" nVehEntered="2"/>
    <interval begin="2640.00" end="2660.00" id="passage_queue_sens" nVehContrib="3" flow="540.00" occupancy="11.56" speed="6.80" harmonicMeanSpeed="6.49" length="5.00" nVehEntered="3"/>
    <interval begin="2660.00" end="2680.00" id="passage_queue_sens" nVehContrib="1" flow="180.00" occupancy="3.81" speed="6.57" harmonicMeanSpeed="6.57" length="5.00" nVehEntered="1"/>
    <interval begin="2680.00" end="2700.00" id="passage_queue_sens" nVehContrib="4" flow="720.00" occupancy="15.07" speed="6.76" harmonicMeanSpeed="6.64" length="5.00" nVehEntered="4"/>
    <interval begin="2700.00" end="2720.00" id="passage_queue_sens" nVehContrib="1" flow="180.00" occupancy="4.96" speed="5.39" harmonicMeanSpeed="5.39" length="5.00" nVehEntered="2"/>
    <interval begin="2720.00" end="2740.00" id="passage_queue_sens" nVehContrib="3" flow="540.00" occupancy="12.06" speed="6.07" harmonicMeanSpeed="6.06" length="5.00" nVehEntered="2"/>
    <interval begin="2740.00" end="2760.00" id="passage_queue_sens" nVehContrib="1" flow="180.00" occupancy="5.30" speed="4.72" harmonicMeanSpeed="4.72" length="5.00" nVehEntered="1"/>
    <interval begin="2760.00" end="2780.00" id="passage_queue_sens" nVehContrib="3" flow="540.00" occupancy="11.09" speed="7.03" harmonicMeanSpeed="6.76" length="5.00" nVehEntered="3"/>
    <interval begin="2780.00" end="2800.00" id="passage_queue_sens" nVehContrib="2" flow="360.00" occupancy="6.78" speed="7.38" harmonicMeanSpeed="7.38" length="5.00" nVehEntered="2"/>
    <interval begin="2800.00" end="2820.00" id="passage_queue_sens" nVehContrib="3" flow="540.00" occupancy="10.44" speed="7.22" harmonicMeanSpeed="7.18" length="5.00" nVehEntered="3"/>
    <interval begin="2820.00" end="2840.00" id="passage_queue_sens" nVehContrib="2" flow="360.00" occupancy="15.41" speed="3.76" harmonicMeanSpeed="3.25" length="5.00" nVehEntered="2"/>
    <interval begin="2840.00" end="2860.00" id="passage_queue_sens" nVehContrib="3" flow="540.00" occupancy="14.28" speed="5.96" harmonicMeanSpeed="5.25" length="5.00" nVehEntered="3"/>
    <interval begin="2860.00" end="2880.00" id="passage_queue_sens" nVehContrib="3" flow="540.00" occupancy="9.88" speed="7.85" harmonicMeanSpeed="7.59" length="5.00" nVehEntered="3"/>
    <interval begin="2880.00" end="2900.00" id="passage_queue_sens" nVehContrib="2" flow="360.00" occupancy="10.09" speed="5.18" harmonicMeanSpeed="4.96" length="5.00" nVehEntered="2"/>
    <interval begin="2900.00" end="2920.00" id="passage_queue_sens" nVehContrib="4" flow="720.00" occupancy="14.09" speed="7.12" harmonicMeanSpeed="7.10" length="5.00" nVehEntered="4"/>
    <interval begin="2920.00" end="2940.00" id="passage_queue_sens" nVehContrib="1" flow="180.00" occupancy="3.97" speed="6.30" harmonicMeanSpeed="6.30" length="5.00" nVehEntered="1"/>
    <interval begin="2940.00" end="2960.00" id="passage_queue_sens" nVehContrib="4" flow="720.00" occupancy="16.62" speed="6.11" harmonicMeanSpeed="6.02" length="5.00" nVehEntered="4"/>
    <interval begin="2960.00" end="2980.00" id="passage_queue_sens" nVehContrib="2" flow="360.00" occupancy="6.42" speed="7.82" harmonicMeanSpeed="7.79" length="5.00" nVehEntered="2"/>
    <interval begin="2980.00" end="3000.00" id="passage_queue_sens" nVehContrib="2" flow="360.00" occupancy="8.32" speed="6.23" harmonicMeanSpeed="6.01" length="5.00" nVehEntered="2"/>
    <interval begin="3000.00" end="3020.00" id="passage_queue_sens" nVehContrib="1" flow="180.00" occupancy="3.44" speed="7.27" harmonicMeanSpeed="7.27" length="5.00" nVehEntered="1"/>
    <interval begin="3020.00" end="3040.00" id="passage_queue_sens" nVehContrib="2" flow="360.00" occupancy="11.61" speed="5.20" harmonicMeanSpeed="4.31" length="5.00" nVehEntered="2"/>
    <interval begin="3040.00" end="3060.00" id="passage_queue_sens" nVehContrib="3" flow="540.00" occupancy="10.35" speed="7.29" harmonicMeanSpeed="7.25" length="5.00" nVehEntered="3"/>
    <interval begin="3060.00" end="3080.00" id="passage_queue_sens" nVehContrib="1" flow="180.00" occupancy="4.44" speed="5.63" harmonicMeanSpeed="5.63" length="5.00" nVehEntered="1"/>
    <interval begin="3080.00" end="3100.00" id="passage_queue_sens" nVehContrib="3" flow="540.00" occupancy="12.65" speed="5.94" harmonicMeanSpeed="5.93" length="5.00" nVehEntered="3"/>
    <interval begin="3100.00" end="3120.00" id="passage_queue_sens" nVehContrib="3" flow="540.00" occupancy="12.32" speed="6.23" harmonicMeanSpeed="6.09" length="5.00" nVehEntered="3"/>
    <interval begin="3120.00" end="3140.00" id="passage_queue_sens" nVehContrib="3" flow="540.00" occupancy="11.17" speed="6.78" harmonicMeanSpeed="6.71" length="5.00" nVehEntered="3"/>