<?xml version="1.0" encoding="UTF-8"?>

<!-- generated on 2025-03-19 11:13:30 by Eclipse SUMO sumo Version 1.18.0
<configuration xmlns:xsi="http://www.w3.org/2001/XMLSchema-instance" xsi:noNamespaceSchemaLocation="http://sumo.dlr.de/xsd/sumoConfiguration.xsd">

    <input>
        <net-file value="ramp.net.xml"/>
        <route-files value="ramp.rou.xml"/>
        <additional-files value="ramp.add.xml"/>
    </input>

    <traci_server>
        <remote-port value="37779"/>
    </traci_server>

    <gui_only>
        <gui-settings-file value="ramp.view.xml"/>
    </gui_only>

</configuration>
-->

<detector xmlns:xsi="http://www.w3.org/2001/XMLSchema-instance" xsi:noNamespaceSchemaLocation="http://sumo.dlr.de/xsd/det_e1_file.xsd">
    <interval begin="0.00" end="20.00" id="passage_queue_sens" nVehContrib="1" flow="180.00" occupancy="5.96" speed="4.19" harmonicMeanSpeed="4.19" length="5.00" nVehEntered="1"/>
    <interval begin="20.00" end="40.00" id="passage_queue_sens" nVehContrib="2" flow="360.00" occupancy="7.40" speed="6.77" harmonicMeanSpeed="6.76" length="5.00" nVehEntered="2"/>
    <interval begin="40.00" end="60.00" id="passage_queue_sens" nVehContrib="1" flow="180.00" occupancy="5.24" speed="4.77" harmonicMeanSpeed="4.77" length="5.00" nVehEntered="1"/>
    <interval begin="60.00" end="80.00" id="passage_queue_sens" nVehContrib="2" flow="360.00" occupancy="8.59" speed="5.82" harmonicMeanSpeed="5.82" length="5.00" nVehEntered="2"/>
    <interval begin="80.00" end="100.00" id="passage_queue_sens" nVehContrib="1" flow="180.00" occupancy="4.44" speed="5.63" harmonicMeanSpeed="5.63" length="5.00" nVehEntered="1"/>
    <interval begin="100.00" end="120.00" id="passage_queue_sens" nVehContrib="3" flow="540.00" occupancy="8.91" speed="8.92" harmonicMeanSpeed="8.42" length="5.00" nVehEntered="3"/>
    <interval begin="120.00" end="140.00" id="passage_queue_sens" nVehContrib="1" flow="180.00" occupancy="3.31" speed="7.56" harmonicMeanSpeed="7.56" length="5.00" nVehEntered="1"/>
    <interval begin="140.00" end="160.00" id="passage_queue_sens" nVehContrib="2" flow="360.00" occupancy="6.08" speed="8.45" harmonicMeanSpeed="8.22" length="5.00" nVehEntered="2"/>
    <interval begin="160.00" end="180.00" id="passage_queue_sens" nVehContrib="1" flow="180.00" occupancy="8.18" speed="3.06" harmonicMeanSpeed="3.06" length="5.00" nVehEntered="1"/>
    <interval begin="180.00" end="200.00" id="passage_queue_sens" nVehContrib="2" flow="360.00" occupancy="7.26" speed="6.89" harmonicMeanSpeed="6.88" length="5.00" nVehEntered="2"/>
    <interval begin="200.00" end="220.00" id="passage_queue_sens" nVehContrib="1" flow="180.00" occupancy="3.27" speed="7.64" harmonicMeanSpeed="7.64" length="5.00" nVehEntered="1"/>
    <interval begin="220.00" end="240.00" id="passage_queue_sens" nVehContrib="2" flow="360.00" occupancy="8.33" speed="7.10" harmonicMeanSpeed="7.10" length="5.00" nVehEntered="3"/>
    <interval begin="240.00" end="260.00" id="passage_queue_sens" nVehContrib="2" flow="360.00" occupancy="5.02" speed="8.37" harmonicMeanSpeed="7.92" length="5.00" nVehEntered="1"/>
    <interval begin="260.00" end="280.00" id="passage_queue_sens" nVehContrib="2" flow="360.00" occupancy="8.46" speed="5.93" harmonicMeanSpeed="5.91" length="5.00" nVehEntered="2"/>
    <interval begin="280.00" end="300.00" id="passage_queue_sens" nVehContrib="1" flow="180.00" occupancy="4.44" speed="5.63" harmonicMeanSpeed="5.63" length="5.00" nVehEntered="1"/>
    <interval begin="300.00" end="320.00" id="passage_queue_sens" nVehContrib="2" flow="360.00" occupancy="10.90" speed="4.83" harmonicMeanSpeed="4.59" length="5.00" nVehEntered="2"/>
    <interval begin="320.00" end="340.00" id="passage_queue_sens" nVehContrib="2" flow="360.00" occupancy="6.82" speed="7.51" harmonicMeanSpeed="7.33" length="5.00" nVehEntered="2"/>
    <interval begin="340.00" end="360.00" id="passage_queue_sens" nVehContrib="2" flow="360.00" occupancy="6.94" speed="7.22" harmonicMeanSpeed="7.21" length="5.00" nVehEntered="2"/>
    <interval begin="360.00" end="380.00" id="passage_queue_sens" nVehContrib="1" flow="180.00" occupancy="2.83" speed="8.84" harmonicMeanSpeed="8.84" length="5.00" nVehEntered="1"/>
    <interval begin="380.00" end="400.00" id="passage_queue_sens" nVehContrib="2" flow="360.00" occupancy="9.72" speed="5.31" harmonicMeanSpeed="5.14" length="5.00" nVehEntered="2"/>
    <interval begin="400.00" end="420.00" id="passage_queue_sens" nVehContrib="1" flow="180.00" occupancy="5.57" speed="6.09" harmonicMeanSpeed="6.09" length="5.00" nVehEntered="2"/>
    <interval begin="420.00" end="440.00" id="passage_queue_sens" nVehContrib="2" flow="360.00" occupancy="5.10" speed="8.70" harmonicMeanSpeed="7.62" length="5.00" nVehEntered="1"/>
    <interval begin="440.00" end="460.00" id="passage_queue_sens" nVehContrib="1" flow="180.00" occupancy="7.53" speed="3.32" harmonicMeanSpeed="3.32" length="5.00" nVehEntered="1"/>
    <interval begin="460.00" end="480.00" id="passage_queue_sens" nVehContrib="1" flow="180.00" occupancy="5.11" speed="4.89" harmonicMeanSpeed="4.89" length="5.00" nVehEntered="1"/>
    <interval begin="480.00" end="500.00" id="passage_queue_sens" nVehContrib="1" flow="180.00" occupancy="3.45" speed="7.26" harmonicMeanSpeed="7.26" length="5.00" nVehEntered="1"/>
    <interval begin="500.00" end="520.00" id="passage_queue_sens" nVehContrib="3" flow="540.00" occupancy="17.51" speed="4.85" harmonicMeanSpeed="4.28" length="5.00" nVehEntered="3"/>
    <interval begin="520.00" end="540.00" id="passage_queue_sens" nVehContrib="3" flow="540.00" occupancy="9.41" speed="8.14" harmonicMeanSpeed="7.97" length="5.00" nVehEntered="3"/>
    <interval begin="540.00" end="560.00" id="passage_queue_sens" nVehContrib="0" flow="0.00" occupancy="0.00" speed="-1.00" harmonicMeanSpeed="-1.00" length="-1.00" nVehEntered="0"/>
    <interval begin="560.00" end="580.00" id="passage_queue_sens" nVehContrib="2" flow="360.00" occupancy="9.49" speed="5.33" harmonicMeanSpeed="5.27" length="5.00" nVehEntered="2"/>
    <interval begin="580.00" end="600.00" id="passage_queue_sens" nVehContrib="1" flow="180.00" occupancy="6.20" speed="4.03" harmonicMeanSpeed="4.03" length="5.00" nVehEntered="1"/>
    <interval begin="600.00" end="620.00" id="passage_queue_sens" nVehContrib="3" flow="540.00" occupancy="11.19" speed="6.72" harmonicMeanSpeed="6.70" length="5.00" nVehEntered="3"/>
    <interval begin="620.00" end="640.00" id="passage_queue_sens" nVehContrib="0" flow="0.00" occupancy="0.00" speed="-1.00" harmonicMeanSpeed="-1.00" length="-1.00" nVehEntered="0"/>
    <interval begin="640.00" end="660.00" id="passage_queue_sens" nVehContrib="3" flow="540.00" occupancy="19.53" speed="4.25" harmonicMeanSpeed="3.84" length="5.00" nVehEntered="3"/>
    <interval begin="660.00" end="680.00" id="passage_queue_sens" nVehContrib="2" flow="360.00" occupancy="10.48" speed="7.25" harmonicMeanSpeed="7.10" length="5.00" nVehEntered="3"/>
    <interval begin="680.00" end="700.00" id="passage_queue_sens" nVehContrib="1" flow="180.00" occupancy="0.66" speed="6.10" harmonicMeanSpeed="6.10" length="5.00" nVehEntered="0"/>
    <interval begin="700.00" end="720.00" id="passage_queue_sens" nVehContrib="1" flow="180.00" occupancy="4.42" speed="5.66" harmonicMeanSpeed="5.66" length="5.00" nVehEntered="1"/>
    <interval begin="720.00" end="740.00" id="passage_queue_sens" nVehContrib="3" flow="540.00" occupancy="12.89" speed="5.99" harmonicMeanSpeed="5.82" length="5.00" nVehEntered="3"/>
    <interval begin="740.00" end="760.00" id="passage_queue_sens" nVehContrib="2" flow="360.00" occupancy="8.13" speed="6.19" harmonicMeanSpeed="6.15" length="5.00" nVehEntered="2"/>
    <interval begin="760.00" end="780.00" id="passage_queue_sens" nVehContrib="2" flow="360.00" occupancy="8.39" speed="6.11" harmonicMeanSpeed="5.96" length="5.00" nVehEntered="2"/>
    <interval begin="780.00" end="800.00" id="passage_queue_sens" nVehContrib="1" flow="180.00" occupancy="5.04" speed="4.96" harmonicMeanSpeed="4.96" length="5.00" nVehEntered="1"/>
    <interval begin="800.00" end="820.00" id="passage_queue_sens" nVehContrib="2" flow="360.00" occupancy="4.84" speed="11.25" harmonicMeanSpeed="10.33" length="5.00" nVehEntered="2"/>
    <interval begin="820.00" end="840.00" id="passage_queue_sens" nVehContrib="2" flow="360.00" occupancy="4.53" speed="11.04" harmonicMeanSpeed="11.04" length="5.00" nVehEntered="2"/>
    <interval begin="840.00" end="860.00" id="passage_queue_sens" nVehContrib="0" flow="0.00" occupancy="0.00" speed="-1.00" harmonicMeanSpeed="-1.00" length="-1.00" nVehEntered="0"/>
    <interval begin="860.00" end="880.00" id="passage_queue_sens" nVehContrib="3" flow="540.00" occupancy="19.01" speed="4.66" harmonicMeanSpeed="3.94" length="5.00" nVehEntered="3"/>
    <interval begin="880.00" end="900.00" id="passage_queue_sens" nVehContrib="1" flow="180.00" occupancy="3.95" speed="6.32" harmonicMeanSpeed="6.32" length="5.00" nVehEntered="1"/>
    <interval begin="900.00" end="920.00" id="passage_queue_sens" nVehContrib="2" flow="360.00" occupancy="13.65" speed="3.75" harmonicMeanSpeed="3.66" length="5.00" nVehEntered="2"/>
    <interval begin="920.00" end="940.00" id="passage_queue_sens" nVehContrib="1" flow="180.00" occupancy="3.76" speed="6.65" harmonicMeanSpeed="6.65" length="5.00" nVehEntered="1"/>
    <interval begin="940.00" end="960.00" id="passage_queue_sens" nVehContrib="3" flow="540.00" occupancy="11.91" speed="6.93" harmonicMeanSpeed="6.30" length="5.00" nVehEntered="3"/>
    <interval begin="960.00" end="980.00" id="passage_queue_sens" nVehContrib="0" flow="0.00" occupancy="0.00" speed="-1.00" harmonicMeanSpeed="-1.00" length="-1.00" nVehEntered="0"/>
    <interval begin="980.00" end="1000.00" id="passage_queue_sens" nVehContrib="1" flow="180.00" occupancy="14.12" speed="1.77" harmonicMeanSpeed="1.77" length="5.00" nVehEntered="1"/>
    <interval begin="1000.00" end="1020.00" id="passage_queue_sens" nVehContrib="2" flow="360.00" occupancy="13.27" speed="4.71" harmonicMeanSpeed="3.77" length="5.00" nVehEntered="2"/>
    <interval begin="1020.00" end="1040.00" id="passage_queue_sens" nVehContrib="3" flow="540.00" occupancy="10.69" speed="7.05" harmonicMeanSpeed="7.02" length="5.00" nVehEntered="3"/>
    <interval begin="1040.00" end="1060.00" id="passage_queue_sens" nVehContrib="2" flow="360.00" occupancy="6.98" speed="7.29" harmonicMeanSpeed="7.17" length="5.00" nVehEntered="2"/>
    <interval begin="1060.00" end="1080.00" id="passage_queue_sens" nVehContrib="2" flow="360.00" occupancy="6.75" speed="8.03" harmonicMeanSpeed="7.40" length="5.00" nVehEntered="2"/>
    <interval begin="1080.00" end="1100.00" id="passage_queue_sens" nVehContrib="1" flow="180.00" occupancy="4.77" speed="5.24" harmonicMeanSpeed="5.24" length="5.00" nVehEntered="1"/>
    <interval begin="1100.00" end="1120.00" id="passage_queue_sens" nVehContrib="1" flow="180.00" occupancy="4.02" speed="6.22" harmonicMeanSpeed="6.22" length="5.00" nVehEntered="1"/>
    <interval begin="1120.00" end="1140.00" id="passage_queue_sens" nVehContrib="3" flow="540.00" occupancy="10.73" speed="7.69" harmonicMeanSpeed="6.99" length="5.00" nVehEntered="3"/>
    <interval begin="1140.00" end="1160.00" id="passage_queue_sens" nVehContrib="1" flow="180.00" occupancy="2.92" speed="8.55" harmonicMeanSpeed="8.55" length="5.00" nVehEntered="1"/>
    <interval begin="1160.00" end="1180.00" id="passage_queue_sens" nVehContrib="2" flow="360.00" occupancy="9.04" speed="5.57" harmonicMeanSpeed="5.53" length="5.00" nVehEntered="2"/>
    <interval begin="1180.00" end="1200.00" id="passage_queue_sens" nVehContrib="2" flow="360.00" occupancy="5.95" speed="9.12" harmonicMeanSpeed="8.40" length="5.00" nVehEntered="2"/>
</detector>
