<?xml version="1.0" encoding="UTF-8"?>

<!-- generated on 2025-03-14 15:29:56 by Eclipse SUMO sumo Version 1.18.0
<configuration xmlns:xsi="http://www.w3.org/2001/XMLSchema-instance" xsi:noNamespaceSchemaLocation="http://sumo.dlr.de/xsd/sumoConfiguration.xsd">

    <input>
        <net-file value="ramp.net.xml"/>
        <route-files value="ramp.rou.xml"/>
        <additional-files value="ramp.add.xml"/>
    </input>

    <traci_server>
        <remote-port value="47617"/>
    </traci_server>

    <random_number>
        <seed value="42"/>
    </random_number>

    <gui_only>
        <gui-settings-file value="ramp.view.xml"/>
    </gui_only>

</configuration>
-->

<detector xmlns:xsi="http://www.w3.org/2001/XMLSchema-instance" xsi:noNamespaceSchemaLocation="http://sumo.dlr.de/xsd/det_e1_file.xsd">
    <interval begin="0.00" end="20.00" id="queue_sens" nVehContrib="0" flow="0.00" occupancy="0.00" speed="-1.00" harmonicMeanSpeed="-1.00" length="-1.00" nVehEntered="0"/>
    <interval begin="20.00" end="40.00" id="queue_sens" nVehContrib="0" flow="0.00" occupancy="0.00" speed="-1.00" harmonicMeanSpeed="-1.00" length="-1.00" nVehEntered="0"/>
    <interval begin="40.00" end="60.00" id="queue_sens" nVehContrib="0" flow="0.00" occupancy="0.00" speed="-1.00" harmonicMeanSpeed="-1.00" length="-1.00" nVehEntered="0"/>
    <interval begin="60.00" end="80.00" id="queue_sens" nVehContrib="1" flow="180.00" occupancy="14.91" speed="1.68" harmonicMeanSpeed="1.68" length="5.00" nVehEntered="1"/>
    <interval begin="80.00" end="100.00" id="queue_sens" nVehContrib="0" flow="0.00" occupancy="0.00" speed="-1.00" harmonicMeanSpeed="-1.00" length="-1.00" nVehEntered="0"/>
    <interval begin="100.00" end="120.00" id="queue_sens" nVehContrib="0" flow="0.00" occupancy="0.00" speed="-1.00" harmonicMeanSpeed="-1.00" length="-1.00" nVehEntered="0"/>
    <interval begin="120.00" end="140.00" id="queue_sens" nVehContrib="1" flow="180.00" occupancy="1.30" speed="19.22" harmonicMeanSpeed="19.22" length="5.00" nVehEntered="1"/>
    <interval begin="140.00" end="160.00" id="queue_sens" nVehContrib="0" flow="0.00" occupancy="0.00" speed="-1.00" harmonicMeanSpeed="-1.00" length="-1.00" nVehEntered="0"/>
    <interval begin="160.00" end="180.00" id="queue_sens" nVehContrib="0" flow="0.00" occupancy="0.00" speed="-1.00" harmonicMeanSpeed="-1.00" length="-1.00" nVehEntered="0"/>
    <interval begin="180.00" end="200.00" id="queue_sens" nVehContrib="1" flow="180.00" occupancy="9.19" speed="2.72" harmonicMeanSpeed="2.72" length="5.00" nVehEntered="1"/>
    <interval begin="200.00" end="220.00" id="queue_sens" nVehContrib="0" flow="0.00" occupancy="0.00" speed="-1.00" harmonicMeanSpeed="-1.00" length="-1.00" nVehEntered="0"/>
    <interval begin="220.00" end="240.00" id="queue_sens" nVehContrib="0" flow="0.00" occupancy="0.00" speed="-1.00" harmonicMeanSpeed="-1.00" length="-1.00" nVehEntered="0"/>
    <interval begin="240.00" end="260.00" id="queue_sens" nVehContrib="1" flow="180.00" occupancy="11.77" speed="2.12" harmonicMeanSpeed="2.12" length="5.00" nVehEntered="1"/>
    <interval begin="260.00" end="280.00" id="queue_sens" nVehContrib="0" flow="0.00" occupancy="0.00" speed="-1.00" harmonicMeanSpeed="-1.00" length="-1.00" nVehEntered="0"/>
    <interval begin="280.00" end="300.00" id="queue_sens" nVehContrib="0" flow="0.00" occupancy="0.00" speed="-1.00" harmonicMeanSpeed="-1.00" length="-1.00" nVehEntered="0"/>
    <interval begin="300.00" end="320.00" id="queue_sens" nVehContrib="1" flow="180.00" occupancy="5.30" speed="4.72" harmonicMeanSpeed="4.72" length="5.00" nVehEntered="1"/>
    <interval begin="320.00" end="340.00" id="queue_sens" nVehContrib="1" flow="180.00" occupancy="1.74" speed="14.38" harmonicMeanSpeed="14.38" length="5.00" nVehEntered="1"/>
    <interval begin="340.00" end="360.00" id="queue_sens" nVehContrib="0" flow="0.00" occupancy="0.00" speed="-1.00" harmonicMeanSpeed="-1.00" length="-1.00" nVehEntered="0"/>
    <interval begin="360.00" end="380.00" id="queue_sens" nVehContrib="0" flow="0.00" occupancy="0.00" speed="-1.00" harmonicMeanSpeed="-1.00" length="-1.00" nVehEntered="0"/>
    <interval begin="380.00" end="400.00" id="queue_sens" nVehContrib="1" flow="180.00" occupancy="6.13" speed="4.08" harmonicMeanSpeed="4.08" length="5.00" nVehEntered="1"/>
    <interval begin="400.00" end="420.00" id="queue_sens" nVehContrib="1" flow="180.00" occupancy="1.47" speed="16.97" harmonicMeanSpeed="16.97" length="5.00" nVehEntered="1"/>
    <interval begin="420.00" end="440.00" id="queue_sens" nVehContrib="0" flow="0.00" occupancy="0.00" speed="-1.00" harmonicMeanSpeed="-1.00" length="-1.00" nVehEntered="0"/>
    <interval begin="440.00" end="460.00" id="queue_sens" nVehContrib="0" flow="0.00" occupancy="0.00" speed="-1.00" harmonicMeanSpeed="-1.00" length="-1.00" nVehEntered="0"/>
    <interval begin="460.00" end="480.00" id="queue_sens" nVehContrib="0" flow="0.00" occupancy="0.00" speed="-1.00" harmonicMeanSpeed="-1.00" length="-1.00" nVehEntered="0"/>
    <interval begin="480.00" end="500.00" id="queue_sens" nVehContrib="0" flow="0.00" occupancy="0.00" speed="-1.00" harmonicMeanSpeed="-1.00" length="-1.00" nVehEntered="0"/>
    <interval begin="500.00" end="520.00" id="queue_sens" nVehContrib="0" flow="0.00" occupancy="0.00" speed="-1.00" harmonicMeanSpeed="-1.00" length="-1.00" nVehEntered="0"/>
    <interval begin="520.00" end="540.00" id="queue_sens" nVehContrib="0" flow="0.00" occupancy="0.00" speed="-1.00" harmonicMeanSpeed="-1.00" length="-1.00" nVehEntered="0"/>
    <interval begin="540.00" end="560.00" id="queue_sens" nVehContrib="0" flow="0.00" occupancy="0.00" speed="-1.00" harmonicMeanSpeed="-1.00" length="-1.00" nVehEntered="0"/>
    <interval begin="560.00" end="580.00" id="queue_sens" nVehContrib="2" flow="360.00" occupancy="8.66" speed="6.01" harmonicMeanSpeed="5.77" length="5.00" nVehEntered="2"/>
    <interval begin="580.00" end="600.00" id="queue_sens" nVehContrib="0" flow="0.00" occupancy="0.00" speed="-1.00" harmonicMeanSpeed="-1.00" length="-1.00" nVehEntered="0"/>
    <interval begin="600.00" end="620.00" id="queue_sens" nVehContrib="0" flow="0.00" occupancy="0.00" speed="-1.00" harmonicMeanSpeed="-1.00" length="-1.00" nVehEntered="0"/>
    <interval begin="620.00" end="640.00" id="queue_sens" nVehContrib="1" flow="180.00" occupancy="6.74" speed="3.71" harmonicMeanSpeed="3.71" length="5.00" nVehEntered="1"/>
    <interval begin="640.00" end="660.00" id="queue_sens" nVehContrib="0" flow="0.00" occupancy="0.00" speed="-1.00" harmonicMeanSpeed="-1.00" length="-1.00" nVehEntered="0"/>
    <interval begin="660.00" end="680.00" id="queue_sens" nVehContrib="0" flow="0.00" occupancy="0.00" speed="-1.00" harmonicMeanSpeed="-1.00" length="-1.00" nVehEntered="0"/>
    <interval begin="680.00" end="700.00" id="queue_sens" nVehContrib="0" flow="0.00" occupancy="0.00" speed="-1.00" harmonicMeanSpeed="-1.00" length="-1.00" nVehEntered="0"/>
    <interval begin="700.00" end="720.00" id="queue_sens" nVehContrib="0" flow="0.00" occupancy="0.00" speed="-1.00" harmonicMeanSpeed="-1.00" length="-1.00" nVehEntered="0"/>
    <interval begin="720.00" end="740.00" id="queue_sens" nVehContrib="1" flow="180.00" occupancy="6.42" speed="3.89" harmonicMeanSpeed="3.89" length="5.00" nVehEntered="1"/>
    <interval begin="740.00" end="760.00" id="queue_sens" nVehContrib="0" flow="0.00" occupancy="0.00" speed="-1.00" harmonicMeanSpeed="-1.00" length="-1.00" nVehEntered="0"/>
    <interval begin="760.00" end="780.00" id="queue_sens" nVehContrib="0" flow="0.00" occupancy="0.00" speed="-1.00" harmonicMeanSpeed="-1.00" length="-1.00" nVehEntered="0"/>
    <interval begin="780.00" end="800.00" id="queue_sens" nVehContrib="0" flow="0.00" occupancy="0.00" speed="-1.00" harmonicMeanSpeed="-1.00" length="-1.00" nVehEntered="0"/>
    <interval begin="800.00" end="820.00" id="queue_sens" nVehContrib="0" flow="0.00" occupancy="0.00" speed="-1.00" harmonicMeanSpeed="-1.00" length="-1.00" nVehEntered="0"/>
    <interval begin="820.00" end="840.00" id="queue_sens" nVehContrib="0" flow="0.00" occupancy="0.00" speed="-1.00" harmonicMeanSpeed="-1.00" length="-1.00" nVehEntered="0"/>
    <interval begin="840.00" end="860.00" id="queue_sens" nVehContrib="0" flow="0.00" occupancy="0.00" speed="-1.00" harmonicMeanSpeed="-1.00" length="-1.00" nVehEntered="0"/>
    <interval begin="860.00" end="880.00" id="queue_sens" nVehContrib="0" flow="0.00" occupancy="0.00" speed="-1.00" harmonicMeanSpeed="-1.00" length="-1.00" nVehEntered="0"/>
    <interval begin="880.00" end="900.00" id="queue_sens" nVehContrib="0" flow="0.00" occupancy="0.00" speed="-1.00" harmonicMeanSpeed="-1.00" length="-1.00" nVehEntered="0"/>
    <interval begin="900.00" end="920.00" id="queue_sens" nVehContrib="0" flow="0.00" occupancy="0.00" speed="-1.00" harmonicMeanSpeed="-1.00" length="-1.00" nVehEntered="0"/>
    <interval begin="920.00" end="940.00" id="queue_sens" nVehContrib="0" flow="0.00" occupancy="0.00" speed="-1.00" harmonicMeanSpeed="-1.00" length="-1.00" nVehEntered="0"/>
    <interval begin="940.00" end="960.00" id="queue_sens" nVehContrib="0" flow="0.00" occupancy="0.00" speed="-1.00" harmonicMeanSpeed="-1.00" length="-1.00" nVehEntered="0"/>
    <interval begin="960.00" end="980.00" id="queue_sens" nVehContrib="0" flow="0.00" occupancy="0.00" speed="-1.00" harmonicMeanSpeed="-1.00" length="-1.00" nVehEntered="0"/>
    <interval begin="980.00" end="1000.00" id="queue_sens" nVehContrib="0" flow="0.00" occupancy="0.00" speed="-1.00" harmonicMeanSpeed="-1.00" length="-1.00" nVehEntered="0"/>
    <interval begin="1000.00" end="1020.00" id="queue_sens" nVehContrib="0" flow="0.00" occupancy="0.00" speed="-1.00" harmonicMeanSpeed="-1.00" length="-1.00" nVehEntered="0"/>
    <interval begin="1020.00" end="1040.00" id="queue_sens" nVehContrib="0" flow="0.00" occupancy="0.00" speed="-1.00" harmonicMeanSpeed="-1.00" length="-1.00" nVehEntered="0"/>
    <interval begin="1040.00" end="1060.00" id="queue_sens" nVehContrib="0" flow="0.00" occupancy="0.00" speed="-1.00" harmonicMeanSpeed="-1.00" length="-1.00" nVehEntered="0"/>
    <interval begin="1060.00" end="1080.00" id="queue_sens" nVehContrib="0" flow="0.00" occupancy="0.00" speed="-1.00" harmonicMeanSpeed="-1.00" length="-1.00" nVehEntered="0"/>
    <interval begin="1080.00" end="1100.00" id="queue_sens" nVehContrib="0" flow="0.00" occupancy="0.00" speed="-1.00" harmonicMeanSpeed="-1.00" length="-1.00" nVehEntered="0"/>
    <interval begin="1100.00" end="1120.00" id="queue_sens" nVehContrib="0" flow="0.00" occupancy="0.00" speed="-1.00" harmonicMeanSpeed="-1.00" length="-1.00" nVehEntered="0"/>
    <interval begin="1120.00" end="1140.00" id="queue_sens" nVehContrib="0" flow="0.00" occupancy="0.00" speed="-1.00" harmonicMeanSpeed="-1.00" length="-1.00" nVehEntered="0"/>
    <interval begin="1140.00" end="1160.00" id="queue_sens" nVehContrib="0" flow="0.00" occupancy="0.00" speed="-1.00" harmonicMeanSpeed="-1.00" length="-1.00" nVehEntered="0"/>
    <interval begin="1160.00" end="1180.00" id="queue_sens" nVehContrib="1" flow="180.00" occupancy="5.54" speed="4.52" harmonicMeanSpeed="4.52" length="5.00" nVehEntered="1"/>
    <interval begin="1180.00" end="1200.00" id="queue_sens" nVehContrib="0" flow="0.00" occupancy="0.00" speed="-1.00" harmonicMeanSpeed="-1.00" length="-1.00" nVehEntered="0"/>
    <interval begin="1200.00" end="1220.00" id="queue_sens" nVehContrib="1" flow="180.00" occupancy="2.69" speed="9.30" harmonicMeanSpeed="9.30" length="5.00" nVehEntered="1"/>
    <interval begin="1220.00" end="1240.00" id="queue_sens" nVehContrib="1" flow="180.00" occupancy="5.13" speed="4.87" harmonicMeanSpeed="4.87" length="5.00" nVehEntered="1"/>
    <interval begin="1240.00" end="1260.00" id="queue_sens" nVehContrib="1" flow="180.00" occupancy="2.11" speed="11.85" harmonicMeanSpeed="11.85" length="5.00" nVehEntered="1"/>
    <interval begin="1260.00" end="1280.00" id="queue_sens" nVehContrib="0" flow="0.00" occupancy="0.00" speed="-1.00" harmonicMeanSpeed="-1.00" length="-1.00" nVehEntered="0"/>
    <interval begin="1280.00" end="1300.00" id="queue_sens" nVehContrib="0" flow="0.00" occupancy="0.00" speed="-1.00" harmonicMeanSpeed="-1.00" length="-1.00" nVehEntered="0"/>
    <interval begin="1300.00" end="1320.00" id="queue_sens" nVehContrib="3" flow="540.00" occupancy="26.25" speed="3.20" harmonicMeanSpeed="2.86" length="5.00" nVehEntered="3"/>
    <interval begin="1320.00" end="1340.00" id="queue_sens" nVehContrib="1" flow="180.00" occupancy="34.46" speed="0.82" harmonicMeanSpeed="0.82" length="5.00" nVehEntered="2"/>
    <interval begin="1340.00" end="1360.00" id="queue_sens" nVehContrib="2" flow="360.00" occupancy="13.55" speed="4.09" harmonicMeanSpeed="2.87" length="5.00" nVehEntered="1"/>
    <interval begin="1360.00" end="1380.00" id="queue_sens" nVehContrib="2" flow="360.00" occupancy="40.76" speed="4.94" harmonicMeanSpeed="3.84" length="5.00" nVehEntered="3"/>
    <interval begin="1380.00" end="1400.00" id="queue_sens" nVehContrib="3" flow="540.00" occupancy="37.69" speed="1.56" harmonicMeanSpeed="1.15" length="5.00" nVehEntered="2"/>
    <interval begin="1400.00" end="1420.00" id="queue_sens" nVehContrib="1" flow="180.00" occupancy="17.63" speed="1.42" harmonicMeanSpeed="1.42" length="5.00" nVehEntered="1"/>
    <interval begin="1420.00" end="1440.00" id="queue_sens" nVehContrib="1" flow="180.00" occupancy="22.46" speed="1.11" harmonicMeanSpeed="1.11" length="5.00" nVehEntered="1"/>
    <interval begin="1440.00" end="1460.00" id="queue_sens" nVehContrib="1" flow="180.00" occupancy="9.27" speed="2.70" harmonicMeanSpeed="2.70" length="5.00" nVehEntered="1"/>
    <interval begin="1460.00" end="1480.00" id="queue_sens" nVehContrib="0" flow="0.00" occupancy="0.00" speed="-1.00" harmonicMeanSpeed="-1.00" length="-1.00" nVehEntered="0"/>
    <interval begin="1480.00" end="1500.00" id="queue_sens" nVehContrib="0" flow="0.00" occupancy="0.00" speed="-1.00" harmonicMeanSpeed="-1.00" length="-1.00" nVehEntered="0"/>
    <interval begin="1500.00" end="1520.00" id="queue_sens" nVehContrib="4" flow="720.00" occupancy="24.27" speed="6.01" harmonicMeanSpeed="4.12" length="5.00" nVehEntered="4"/>
    <interval begin="1520.00" end="1540.00" id="queue_sens" nVehContrib="3" flow="540.00" occupancy="32.08" speed="3.95" harmonicMeanSpeed="2.34" length="5.00" nVehEntered="3"/>
    <interval begin="1540.00" end="1560.00" id="queue_sens" nVehContrib="1" flow="180.00" occupancy="6.35" speed="3.94" harmonicMeanSpeed="3.94" length="5.00" nVehEntered="1"/>
    <interval begin="1560.00" end="1580.00" id="queue_sens" nVehContrib="3" flow="540.00" occupancy="29.29" speed="3.14" harmonicMeanSpeed="2.56" length="5.00" nVehEntered="3"/>
    <interval begin="1580.00" end="1600.00" id="queue_sens" nVehContrib="3" flow="540.00" occupancy="17.04" speed="5.21" harmonicMeanSpeed="4.40" length="5.00" nVehEntered="3"/>
    <interval begin="1600.00" end="1620.00" id="queue_sens" nVehContrib="1" flow="180.00" occupancy="5.93" speed="4.22" harmonicMeanSpeed="4.22" length="5.00" nVehEntered="1"/>
    <interval begin="1620.00" end="1640.00" id="queue_sens" nVehContrib="2" flow="360.00" occupancy="18.83" speed="2.75" harmonicMeanSpeed="2.66" length="5.00" nVehEntered="2"/>
    <interval begin="1640.00" end="1660.00" id="queue_sens" nVehContrib="1" flow="180.00" occupancy="10.07" speed="4.93" harmonicMeanSpeed="4.93" length="5.00" nVehEntered="2"/>
    <interval begin="1660.00" end="1680.00" id="queue_sens" nVehContrib="3" flow="540.00" occupancy="26.35" speed="2.71" harmonicMeanSpeed="2.39" length="5.00" nVehEntered="2"/>
    <interval begin="1680.00" end="1700.00" id="queue_sens" nVehContrib="1" flow="180.00" occupancy="38.33" speed="0.65" harmonicMeanSpeed="0.65" length="5.00" nVehEntered="1"/>
    <interval begin="1700.00" end="1720.00" id="queue_sens" nVehContrib="0" flow="0.00" occupancy="0.00" speed="-1.00" harmonicMeanSpeed="-1.00" length="-1.00" nVehEntered="0"/>
    <interval begin="1720.00" end="1740.00" id="queue_sens" nVehContrib="2" flow="360.00" occupancy="35.89" speed="1.60" harmonicMeanSpeed="1.39" length="5.00" nVehEntered="2"/>
    <interval begin="1740.00" end="1760.00" id="queue_sens" nVehContrib="1" flow="180.00" occupancy="3.47" speed="7.21" harmonicMeanSpeed="7.21" length="5.00" nVehEntered="1"/>
    <interval begin="1760.00" end="1780.00" id="queue_sens" nVehContrib="1" flow="180.00" occupancy="8.79" speed="2.84" harmonicMeanSpeed="2.84" length="5.00" nVehEntered="1"/>
    <interval begin="1780.00" end="1800.00" id="queue_sens" nVehContrib="0" flow="0.00" occupancy="0.00" speed="-1.00" harmonicMeanSpeed="-1.00" length="-1.00" nVehEntered="0"/>
    <interval begin="1800.00" end="1820.00" id="queue_sens" nVehContrib="1" flow="180.00" occupancy="8.42" speed="3.26" harmonicMeanSpeed="3.26" length="5.00" nVehEntered="2"/>
    <interval begin="1820.00" end="1840.00" id="queue_sens" nVehContrib="2" flow="360.00" occupancy="33.59" speed="1.62" harmonicMeanSpeed="1.46" length="5.00" nVehEntered="1"/>
    <interval begin="1840.00" end="1860.00" id="queue_sens" nVehContrib="0" flow="0.00" occupancy="7.96" speed="-1.00" harmonicMeanSpeed="-1.00" length="-1.00" nVehEntered="1"/>
    <interval begin="1860.00" end="1880.00" id="queue_sens" nVehContrib="2" flow="360.00" occupancy="32.72" speed="1.37" harmonicMeanSpeed="1.23" length="5.00" nVehEntered="1"/>
    <interval begin="1880.00" end="1900.00" id="queue_sens" nVehContrib="1" flow="180.00" occupancy="18.51" speed="1.35" harmonicMeanSpeed="1.35" length="5.00" nVehEntered="1"/>
    <interval begin="1900.00" end="1920.00" id="queue_sens" nVehContrib="1" flow="180.00" occupancy="7.24" speed="6.64" harmonicMeanSpeed="6.64" length="5.00" nVehEntered="2"/>
    <interval begin="1920.00" end="1940.00" id="queue_sens" nVehContrib="3" flow="540.00" occupancy="18.59" speed="4.16" harmonicMeanSpeed="3.65" length="5.00" nVehEntered="3"/>
    <interval begin="1940.00" end="1960.00" id="queue_sens" nVehContrib="1" flow="180.00" occupancy="9.32" speed="2.30" harmonicMeanSpeed="2.30" length="5.00" nVehEntered="0"/>
    <interval begin="1960.00" end="1980.00" id="queue_sens" nVehContrib="2" flow="360.00" occupancy="37.03" speed="2.61" harmonicMeanSpeed="1.98" length="5.00" nVehEntered="3"/>
    <interval begin="1980.00" end="2000.00" id="queue_sens" nVehContrib="2" flow="360.00" occupancy="39.44" speed="0.98" harmonicMeanSpeed="0.98" length="5.00" nVehEntered="1"/>
    <interval begin="2000.00" end="2020.00" id="queue_sens" nVehContrib="2" flow="360.00" occupancy="15.40" speed="3.26" harmonicMeanSpeed="3.25" length="5.00" nVehEntered="2"/>
    <interval begin="2020.00" end="2040.00" id="queue_sens" nVehContrib="1" flow="180.00" occupancy="6.38" speed="3.92" harmonicMeanSpeed="3.92" length="5.00" nVehEntered="1"/>
    <interval begin="2040.00" end="2060.00" id="queue_sens" nVehContrib="0" flow="0.00" occupancy="0.00" speed="-1.00" harmonicMeanSpeed="-1.00" length="-1.00" nVehEntered="0"/>
    <interval begin="2060.00" end="2080.00" id="queue_sens" nVehContrib="2" flow="360.00" occupancy="11.84" speed="4.24" harmonicMeanSpeed="4.22" length="5.00" nVehEntered="2"/>
    <interval begin="2080.00" end="2100.00" id="queue_sens" nVehContrib="2" flow="360.00" occupancy="24.30" speed="2.28" harmonicMeanSpeed="2.06" length="5.00" nVehEntered="2"/>
    <interval begin="2100.00" end="2120.00" id="queue_sens" nVehContrib="2" flow="360.00" occupancy="26.06" speed="3.86" harmonicMeanSpeed="1.92" length="5.00" nVehEntered="2"/>
    <interval begin="2120.00" end="2140.00" id="queue_sens" nVehContrib="3" flow="540.00" occupancy="33.11" speed="3.58" harmonicMeanSpeed="2.27" length="5.00" nVehEntered="3"/>
    <interval begin="2140.00" end="2160.00" id="queue_sens" nVehContrib="2" flow="360.00" occupancy="19.11" speed="3.01" harmonicMeanSpeed="2.62" length="5.00" nVehEntered="2"/>
    <interval begin="2160.00" end="2180.00" id="queue_sens" nVehContrib="2" flow="360.00" occupancy="41.85" speed="1.45" harmonicMeanSpeed="1.19" length="5.00" nVehEntered="2"/>
    <interval begin="2180.00" end="2200.00" id="queue_sens" nVehContrib="1" flow="180.00" occupancy="2.88" speed="8.67" harmonicMeanSpeed="8.67" length="5.00" nVehEntered="1"/>
    <interval begin="2200.00" end="2220.00" id="queue_sens" nVehContrib="3" flow="540.00" occupancy="31.25" speed="3.75" harmonicMeanSpeed="2.40" length="5.00" nVehEntered="3"/>
    <interval begin="2220.00" end="2240.00" id="queue_sens" nVehContrib="0" flow="0.00" occupancy="21.57" speed="-1.00" harmonicMeanSpeed="-1.00" length="-1.00" nVehEntered="1"/>
    <interval begin="2240.00" end="2260.00" id="queue_sens" nVehContrib="2" flow="360.00" occupancy="28.13" speed="1.23" harmonicMeanSpeed="1.01" length="5.00" nVehEntered="1"/>
    <interval begin="2260.00" end="2280.00" id="queue_sens" nVehContrib="2" flow="360.00" occupancy="36.48" speed="2.12" harmonicMeanSpeed="1.59" length="5.00" nVehEntered="3"/>
    <interval begin="2280.00" end="2300.00" id="queue_sens" nVehContrib="2" flow="360.00" occupancy="25.71" speed="1.63" harmonicMeanSpeed="1.63" length="5.00" nVehEntered="1"/>
    <interval begin="2300.00" end="2320.00" id="queue_sens" nVehContrib="0" flow="0.00" occupancy="0.00" speed="-1.00" harmonicMeanSpeed="-1.00" length="-1.00" nVehEntered="0"/>
    <interval begin="2320.00" end="2340.00" id="queue_sens" nVehContrib="2" flow="360.00" occupancy="20.12" speed="9.93" harmonicMeanSpeed="9.76" length="5.00" nVehEntered="3"/>
    <interval begin="2340.00" end="2360.00" id="queue_sens" nVehContrib="3" flow="540.00" occupancy="21.99" speed="2.42" harmonicMeanSpeed="2.03" length="5.00" nVehEntered="2"/>
    <interval begin="2360.00" end="2380.00" id="queue_sens" nVehContrib="1" flow="180.00" occupancy="23.51" speed="1.08" harmonicMeanSpeed="1.08" length="5.00" nVehEntered="2"/>
    <interval begin="2380.00" end="2400.00" id="queue_sens" nVehContrib="2" flow="360.00" occupancy="24.78" speed="2.41" harmonicMeanSpeed="1.99" length="5.00" nVehEntered="1"/>
    <interval begin="2400.00" end="2420.00" id="queue_sens" nVehContrib="2" flow="360.00" occupancy="13.36" speed="6.10" harmonicMeanSpeed="5.93" length="5.00" nVehEntered="3"/>
    <interval begin="2420.00" end="2440.00" id="queue_sens" nVehContrib="3" flow="540.00" occupancy="8.28" speed="5.94" harmonicMeanSpeed="5.68" length="5.00" nVehEntered="2"/>
    <interval begin="2440.00" end="2460.00" id="queue_sens" nVehContrib="0" flow="0.00" occupancy="0.00" speed="-1.00" harmonicMeanSpeed="-1.00" length="-1.00" nVehEntered="0"/>
    <interval begin="2460.00" end="2480.00" id="queue_sens" nVehContrib="2" flow="360.00" occupancy="10.52" speed="4.76" harmonicMeanSpeed="4.75" length="5.00" nVehEntered="2"/>
    <interval begin="2480.00" end="2500.00" id="queue_sens" nVehContrib="1" flow="180.00" occupancy="4.61" speed="5.42" harmonicMeanSpeed="5.42" length="5.00" nVehEntered="1"/>
    <interval begin="2500.00" end="2520.00" id="queue_sens" nVehContrib="1" flow="180.00" occupancy="22.45" speed="1.11" harmonicMeanSpeed="1.11" length="5.00" nVehEntered="1"/>
    <interval begin="2520.00" end="2540.00" id="queue_sens" nVehContrib="2" flow="360.00" occupancy="24.05" speed="3.93" harmonicMeanSpeed="2.08" length="5.00" nVehEntered="2"/>
    <interval begin="2540.00" end="2560.00" id="queue_sens" nVehContrib="2" flow="360.00" occupancy="7.36" speed="6.89" harmonicMeanSpeed="6.80" length="5.00" nVehEntered="2"/>
    <interval begin="2560.00" end="2580.00" id="queue_sens" nVehContrib="2" flow="360.00" occupancy="14.04" speed="4.26" harmonicMeanSpeed="3.56" length="5.00" nVehEntered="2"/>
    <interval begin="2580.00" end="2600.00" id="queue_sens" nVehContrib="1" flow="180.00" occupancy="2.73" speed="9.17" harmonicMeanSpeed="9.17" length="5.00" nVehEntered="1"/>
    <interval begin="2600.00" end="2620.00" id="queue_sens" nVehContrib="1" flow="180.00" occupancy="4.95" speed="5.05" harmonicMeanSpeed="5.05" length="5.00" nVehEntered="1"/>
    <interval begin="2620.00" end="2640.00" id="queue_sens" nVehContrib="2" flow="360.00" occupancy="14.93" speed="3.35" harmonicMeanSpeed="3.35" length="5.00" nVehEntered="2"/>
    <interval begin="2640.00" end="2660.00" id="queue_sens" nVehContrib="1" flow="180.00" occupancy="31.18" speed="3.14" harmonicMeanSpeed="3.14" length="5.00" nVehEntered="2"/>
    <interval begin="2660.00" end="2680.00" id="queue_sens" nVehContrib="1" flow="180.00" occupancy="5.91" speed="0.86" harmonicMeanSpeed="0.86" length="5.00" nVehEntered="0"/>
    <interval begin="2680.00" end="2700.00" id="queue_sens" nVehContrib="1" flow="180.00" occupancy="2.41" speed="10.36" harmonicMeanSpeed="10.36" length="5.00" nVehEntered="1"/>
    <interval begin="2700.00" end="2720.00" id="queue_sens" nVehContrib="2" flow="360.00" occupancy="13.62" speed="3.68" harmonicMeanSpeed="3.67" length="5.00" nVehEntered="2"/>
    <interval begin="2720.00" end="2740.00" id="queue_sens" nVehContrib="2" flow="360.00" occupancy="13.71" speed="3.83" harmonicMeanSpeed="3.65" length="5.00" nVehEntered="2"/>
    <interval begin="2740.00" end="2760.00" id="queue_sens" nVehContrib="3" flow="540.00" occupancy="15.63" speed="6.07" harmonicMeanSpeed="4.80" length="5.00" nVehEntered="3"/>
    <interval begin="2760.00" end="2780.00" id="queue_sens" nVehContrib="0" flow="0.00" occupancy="0.00" speed="-1.00" harmonicMeanSpeed="-1.00" length="-1.00" nVehEntered="0"/>
    <interval begin="2780.00" end="2800.00" id="queue_sens" nVehContrib="0" flow="0.00" occupancy="0.00" speed="-1.00" harmonicMeanSpeed="-1.00" length="-1.00" nVehEntered="0"/>
    <interval begin="2800.00" end="2820.00" id="queue_sens" nVehContrib="1" flow="180.00" occupancy="9.97" speed="3.62" harmonicMeanSpeed="3.62" length="5.00" nVehEntered="2"/>
    <interval begin="2820.00" end="2840.00" id="queue_sens" nVehContrib="3" flow="540.00" occupancy="30.99" speed="2.67" harmonicMeanSpeed="2.20" length="5.00" nVehEntered="2"/>
    <interval begin="2840.00" end="2860.00" id="queue_sens" nVehContrib="0" flow="0.00" occupancy="0.00" speed="-1.00" harmonicMeanSpeed="-1.00" length="-1.00" nVehEntered="0"/>
    <interval begin="2860.00" end="2880.00" id="queue_sens" nVehContrib="2" flow="360.00" occupancy="6.43" speed="7.99" harmonicMeanSpeed="7.77" length="5.00" nVehEntered="2"/>
    <interval begin="2880.00" end="2900.00" id="queue_sens" nVehContrib="1" flow="180.00" occupancy="7.86" speed="3.18" harmonicMeanSpeed="3.18" length="5.00" nVehEntered="1"/>
    <interval begin="2900.00" end="2920.00" id="queue_sens" nVehContrib="3" flow="540.00" occupancy="38.90" speed="2.54" harmonicMeanSpeed="1.93" length="5.00" nVehEntered="3"/>
    <interval begin="2920.00" end="2940.00" id="queue_sens" nVehContrib="1" flow="180.00" occupancy="10.00" speed="2.50" harmonicMeanSpeed="2.50" length="5.00" nVehEntered="1"/>
    <interval begin="2940.00" end="2960.00" id="queue_sens" nVehContrib="2" flow="360.00" occupancy="13.56" speed="5.40" harmonicMeanSpeed="3.69" length="5.00" nVehEntered="2"/>
    <interval begin="2960.00" end="2980.00" id="queue_sens" nVehContrib="1" flow="180.00" occupancy="8.72" speed="2.87" harmonicMeanSpeed="2.87" length="5.00" nVehEntered="1"/>
    <interval begin="2980.00" end="3000.00" id="queue_sens" nVehContrib="2" flow="360.00" occupancy="16.62" speed="3.33" harmonicMeanSpeed="3.01" length="5.00" nVehEntered="2"/>
    <interval begin="3000.00" end="3020.00" id="queue_sens" nVehContrib="0" flow="0.00" occupancy="0.00" speed="-1.00" harmonicMeanSpeed="-1.00" length="-1.00" nVehEntered="0"/>
    <interval begin="3020.00" end="3040.00" id="queue_sens" nVehContrib="1" flow="180.00" occupancy="5.58" speed="4.48" harmonicMeanSpeed="4.48" length="5.00" nVehEntered="1"/>
    <interval begin="3040.00" end="3060.00" id="queue_sens" nVehContrib="3" flow="540.00" occupancy="33.49" speed="3.41" harmonicMeanSpeed="2.24" length="5.00" nVehEntered="3"/>
    <interval begin="3060.00" end="3080.00" id="queue_sens" nVehContrib="1" flow="180.00" occupancy="8.26" speed="3.03" harmonicMeanSpeed="3.03" length="5.00" nVehEntered="1"/>
    <interval begin="3080.00" end="3100.00" id="queue_sens" nVehContrib="0" flow="0.00" occupancy="0.00" speed="-1.00" harmonicMeanSpeed="-1.00" length="-1.00" nVehEntered="0"/>
    <interval begin="3100.00" end="3120.00" id="queue_sens" nVehContrib="3" flow="540.00" occupancy="24.46" speed="3.18" harmonicMeanSpeed="3.07" length="5.00" nVehEntered="3"/>
    <interval begin="3120.00" end="3140.00" id="queue_sens" nVehContrib="3" flow="540.00" occupancy="21.33" speed="4.93" harmonicMeanSpeed="4.01" length="5.00" nVehEntered="4"/>
    <interval begin="3140.00" end="3160.00" id="queue_sens" nVehContrib="2" flow="360.00" occupancy="6.18" speed="6.05" harmonicMeanSpeed="5.67" length="5.00" nVehEntered="1"/>
    <interval begin="3160.00" end="3180.00" id="queue_sens" nVehContrib="2" flow="360.00" occupancy="30.26" speed="2.11" harmonicMeanSpeed="1.65" length="5.00" nVehEntered="2"/>
    <interval begin="3180.00" end="3200.00" id="queue_sens" nVehContrib="2" flow="360.00" occupancy="9.75" speed="6.15" harmonicMeanSpeed="5.13" length="5.00" nVehEntered="2"/>
    <interval begin="3200.00" end="3220.00" id="queue_sens" nVehContrib="1" flow="180.00" occupancy="4.26" speed="5.87" harmonicMeanSpeed="5.87" length="5.00" nVehEntered="1"/>
    <interval begin="3220.00" end="3240.00" id="queue_sens" nVehContrib="1" flow="180.00" occupancy="5.36" speed="4.66" harmonicMeanSpeed="4.66" length="5.00" nVehEntered="1"/>
    <interval begin="3240.00" end="3260.00" id="queue_sens" nVehContrib="1" flow="180.00" occupancy="23.52" speed="1.06" harmonicMeanSpeed="1.06" length="5.00" nVehEntered="1"/>
    <interval begin="3260.00" end="3280.00" id="queue_sens" nVehContrib="0" flow="0.00" occupancy="0.00" speed="-1.00" harmonicMeanSpeed="-1.00" length="-1.00" nVehEntered="0"/>