<?xml version="1.0" encoding="UTF-8"?>

<!-- generated on 2025-03-18 10:33:30 by Eclipse SUMO GUI Version 1.18.0
<configuration xmlns:xsi="http://www.w3.org/2001/XMLSchema-instance" xsi:noNamespaceSchemaLocation="http://sumo.dlr.de/xsd/sumoConfiguration.xsd">

    <input>
        <net-file value="data/1ramp_1x3/ramp.net.xml"/>
        <route-files value="data/1ramp_1x3/ramp.rou.xml"/>
        <additional-files value="data/1ramp_1x3/ramp.add.xml"/>
    </input>

    <traci_server>
        <remote-port value="37667"/>
    </traci_server>

    <gui_only>
        <gui-settings-file value="data/1ramp_1x3/ramp.view.xml"/>
    </gui_only>

</configuration>
-->

<detector xmlns:xsi="http://www.w3.org/2001/XMLSchema-instance" xsi:noNamespaceSchemaLocation="http://sumo.dlr.de/xsd/det_e1_file.xsd">
    <interval begin="0.00" end="20.00" id="passage_queue_sens" nVehContrib="1" flow="180.00" occupancy="5.80" speed="4.31" harmonicMeanSpeed="4.31" length="5.00" nVehEntered="1"/>
    <interval begin="20.00" end="40.00" id="passage_queue_sens" nVehContrib="1" flow="180.00" occupancy="2.30" speed="10.85" harmonicMeanSpeed="10.85" length="5.00" nVehEntered="1"/>
    <interval begin="40.00" end="60.00" id="passage_queue_sens" nVehContrib="3" flow="540.00" occupancy="24.46" speed="3.32" harmonicMeanSpeed="3.07" length="5.00" nVehEntered="3"/>
    <interval begin="60.00" end="80.00" id="passage_queue_sens" nVehContrib="2" flow="360.00" occupancy="6.07" speed="8.25" harmonicMeanSpeed="8.24" length="5.00" nVehEntered="2"/>
    <interval begin="80.00" end="100.00" id="passage_queue_sens" nVehContrib="4" flow="720.00" occupancy="29.06" speed="3.74" harmonicMeanSpeed="3.44" length="5.00" nVehEntered="4"/>
    <interval begin="100.00" end="120.00" id="passage_queue_sens" nVehContrib="4" flow="720.00" occupancy="20.49" speed="5.02" harmonicMeanSpeed="4.88" length="5.00" nVehEntered="4"/>
    <interval begin="120.00" end="140.00" id="passage_queue_sens" nVehContrib="0" flow="0.00" occupancy="0.00" speed="-1.00" harmonicMeanSpeed="-1.00" length="-1.00" nVehEntered="0"/>
    <interval begin="140.00" end="160.00" id="passage_queue_sens" nVehContrib="5" flow="900.00" occupancy="17.14" speed="7.53" harmonicMeanSpeed="7.29" length="5.00" nVehEntered="5"/>
    <interval begin="160.00" end="180.00" id="passage_queue_sens" nVehContrib="1" flow="180.00" occupancy="3.71" speed="6.75" harmonicMeanSpeed="6.75" length="5.00" nVehEntered="1"/>
    <interval begin="180.00" end="200.00" id="passage_queue_sens" nVehContrib="4" flow="720.00" occupancy="17.66" speed="5.80" harmonicMeanSpeed="5.66" length="5.00" nVehEntered="4"/>
    <interval begin="200.00" end="220.00" id="passage_queue_sens" nVehContrib="2" flow="360.00" occupancy="7.53" speed="6.90" harmonicMeanSpeed="6.64" length="5.00" nVehEntered="2"/>
    <interval begin="220.00" end="240.00" id="passage_queue_sens" nVehContrib="5" flow="900.00" occupancy="16.91" speed="7.52" harmonicMeanSpeed="7.39" length="5.00" nVehEntered="5"/>
    <interval begin="240.00" end="260.00" id="passage_queue_sens" nVehContrib="3" flow="540.00" occupancy="11.56" speed="6.92" harmonicMeanSpeed="6.49" length="5.00" nVehEntered="3"/>
    <interval begin="260.00" end="280.00" id="passage_queue_sens" nVehContrib="3" flow="540.00" occupancy="7.72" speed="12.69" harmonicMeanSpeed="9.72" length="5.00" nVehEntered="3"/>
    <interval begin="280.00" end="300.00" id="passage_queue_sens" nVehContrib="2" flow="360.00" occupancy="6.70" speed="7.49" harmonicMeanSpeed="7.46" length="5.00" nVehEntered="2"/>
    <interval begin="300.00" end="320.00" id="passage_queue_sens" nVehContrib="3" flow="540.00" occupancy="9.00" speed="8.67" harmonicMeanSpeed="8.33" length="5.00" nVehEntered="3"/>
    <interval begin="320.00" end="340.00" id="passage_queue_sens" nVehContrib="2" flow="360.00" occupancy="9.86" speed="5.27" harmonicMeanSpeed="5.07" length="5.00" nVehEntered="2"/>
    <interval begin="340.00" end="360.00" id="passage_queue_sens" nVehContrib="2" flow="360.00" occupancy="7.05" speed="7.11" harmonicMeanSpeed="7.09" length="5.00" nVehEntered="2"/>
    <interval begin="360.00" end="380.00" id="passage_queue_sens" nVehContrib="3" flow="540.00" occupancy="11.21" speed="6.82" harmonicMeanSpeed="6.69" length="5.00" nVehEntered="3"/>
    <interval begin="380.00" end="400.00" id="passage_queue_sens" nVehContrib="1" flow="180.00" occupancy="3.22" speed="7.77" harmonicMeanSpeed="7.77" length="5.00" nVehEntered="1"/>
    <interval begin="400.00" end="420.00" id="passage_queue_sens" nVehContrib="0" flow="0.00" occupancy="0.00" speed="-1.00" harmonicMeanSpeed="-1.00" length="-1.00" nVehEntered="0"/>
    <interval begin="420.00" end="440.00" id="passage_queue_sens" nVehContrib="2" flow="360.00" occupancy="14.33" speed="3.49" harmonicMeanSpeed="3.49" length="5.00" nVehEntered="2"/>
    <interval begin="440.00" end="460.00" id="passage_queue_sens" nVehContrib="2" flow="360.00" occupancy="7.27" speed="7.28" harmonicMeanSpeed="6.88" length="5.00" nVehEntered="2"/>
    <interval begin="460.00" end="480.00" id="passage_queue_sens" nVehContrib="1" flow="180.00" occupancy="4.71" speed="5.31" harmonicMeanSpeed="5.31" length="5.00" nVehEntered="1"/>
    <interval begin="480.00" end="500.00" id="passage_queue_sens" nVehContrib="2" flow="360.00" occupancy="14.58" speed="4.06" harmonicMeanSpeed="3.43" length="5.00" nVehEntered="2"/>
    <interval begin="500.00" end="520.00" id="passage_queue_sens" nVehContrib="2" flow="360.00" occupancy="11.26" speed="4.44" harmonicMeanSpeed="4.44" length="5.00" nVehEntered="2"/>
    <interval begin="520.00" end="540.00" id="passage_queue_sens" nVehContrib="4" flow="720.00" occupancy="15.71" speed="6.55" harmonicMeanSpeed="6.37" length="5.00" nVehEntered="4"/>
    <interval begin="540.00" end="560.00" id="passage_queue_sens" nVehContrib="4" flow="720.00" occupancy="31.78" speed="3.25" harmonicMeanSpeed="3.15" length="5.00" nVehEntered="4"/>
    <interval begin="560.00" end="580.00" id="passage_queue_sens" nVehContrib="6" flow="1080.00" occupancy="16.32" speed="9.68" harmonicMeanSpeed="9.19" length="5.00" nVehEntered="6"/>
    <interval begin="580.00" end="600.00" id="passage_queue_sens" nVehContrib="4" flow="720.00" occupancy="15.73" speed="6.47" harmonicMeanSpeed="6.36" length="5.00" nVehEntered="4"/>
    <interval begin="600.00" end="620.00" id="passage_queue_sens" nVehContrib="1" flow="180.00" occupancy="4.81" speed="5.20" harmonicMeanSpeed="5.20" length="5.00" nVehEntered="1"/>
    <interval begin="620.00" end="640.00" id="passage_queue_sens" nVehContrib="3" flow="540.00" occupancy="34.20" speed="2.54" harmonicMeanSpeed="2.19" length="5.00" nVehEntered="3"/>
    <interval begin="640.00" end="660.00" id="passage_queue_sens" nVehContrib="5" flow="900.00" occupancy="42.44" speed="3.06" harmonicMeanSpeed="2.95" length="5.00" nVehEntered="5"/>
    <interval begin="660.00" end="680.00" id="passage_queue_sens" nVehContrib="4" flow="720.00" occupancy="18.34" speed="5.63" harmonicMeanSpeed="5.45" length="5.00" nVehEntered="4"/>
    <interval begin="680.00" end="700.00" id="passage_queue_sens" nVehContrib="2" flow="360.00" occupancy="6.75" speed="7.47" harmonicMeanSpeed="7.41" length="5.00" nVehEntered="2"/>
    <interval begin="700.00" end="720.00" id="passage_queue_sens" nVehContrib="1" flow="180.00" occupancy="3.01" speed="8.31" harmonicMeanSpeed="8.31" length="5.00" nVehEntered="1"/>
    <interval begin="720.00" end="740.00" id="passage_queue_sens" nVehContrib="0" flow="0.00" occupancy="0.00" speed="-1.00" harmonicMeanSpeed="-1.00" length="-1.00" nVehEntered="0"/>
    <interval begin="740.00" end="760.00" id="passage_queue_sens" nVehContrib="3" flow="540.00" occupancy="33.08" speed="2.50" harmonicMeanSpeed="2.27" length="5.00" nVehEntered="3"/>
    <interval begin="760.00" end="780.00" id="passage_queue_sens" nVehContrib="4" flow="720.00" occupancy="38.08" speed="4.09" harmonicMeanSpeed="2.63" length="5.00" nVehEntered="4"/>
    <interval begin="780.00" end="800.00" id="passage_queue_sens" nVehContrib="4" flow="720.00" occupancy="14.22" speed="7.27" harmonicMeanSpeed="7.03" length="5.00" nVehEntered="4"/>
    <interval begin="800.00" end="820.00" id="passage_queue_sens" nVehContrib="3" flow="540.00" occupancy="29.81" speed="2.74" harmonicMeanSpeed="2.52" length="5.00" nVehEntered="3"/>
    <interval begin="820.00" end="840.00" id="passage_queue_sens" nVehContrib="4" flow="720.00" occupancy="14.14" speed="7.27" harmonicMeanSpeed="7.07" length="5.00" nVehEntered="4"/>
    <interval begin="840.00" end="860.00" id="passage_queue_sens" nVehContrib="4" flow="720.00" occupancy="15.21" speed="6.94" harmonicMeanSpeed="6.58" length="5.00" nVehEntered="4"/>
    <interval begin="860.00" end="880.00" id="passage_queue_sens" nVehContrib="2" flow="360.00" occupancy="10.14" speed="5.00" harmonicMeanSpeed="4.93" length="5.00" nVehEntered="2"/>
    <interval begin="880.00" end="900.00" id="passage_queue_sens" nVehContrib="1" flow="180.00" occupancy="4.65" speed="5.38" harmonicMeanSpeed="5.38" length="5.00" nVehEntered="1"/>
    <interval begin="900.00" end="920.00" id="passage_queue_sens" nVehContrib="1" flow="180.00" occupancy="18.63" speed="2.37" harmonicMeanSpeed="2.37" length="5.00" nVehEntered="2"/>
    <interval begin="920.00" end="940.00" id="passage_queue_sens" nVehContrib="4" flow="720.00" occupancy="34.27" speed="3.18" harmonicMeanSpeed="2.70" length="5.00" nVehEntered="4"/>
    <interval begin="940.00" end="960.00" id="passage_queue_sens" nVehContrib="5" flow="900.00" occupancy="22.96" speed="4.52" harmonicMeanSpeed="4.42" length="5.00" nVehEntered="4"/>
    <interval begin="960.00" end="980.00" id="passage_queue_sens" nVehContrib="4" flow="720.00" occupancy="19.23" speed="5.68" harmonicMeanSpeed="5.20" length="5.00" nVehEntered="4"/>
    <interval begin="980.00" end="1000.00" id="passage_queue_sens" nVehContrib="2" flow="360.00" occupancy="11.44" speed="5.30" harmonicMeanSpeed="5.25" length="5.00" nVehEntered="3"/>
    <interval begin="1000.00" end="1020.00" id="passage_queue_sens" nVehContrib="4" flow="720.00" occupancy="38.38" speed="2.59" harmonicMeanSpeed="2.48" length="5.00" nVehEntered="3"/>
    <interval begin="1020.00" end="1040.00" id="passage_queue_sens" nVehContrib="3" flow="540.00" occupancy="32.27" speed="3.57" harmonicMeanSpeed="3.21" length="5.00" nVehEntered="4"/>
    <interval begin="1040.00" end="1060.00" id="passage_queue_sens" nVehContrib="4" flow="720.00" occupancy="15.35" speed="5.36" harmonicMeanSpeed="4.13" length="5.00" nVehEntered="3"/>
    <interval begin="1060.00" end="1080.00" id="passage_queue_sens" nVehContrib="1" flow="180.00" occupancy="9.28" speed="7.15" harmonicMeanSpeed="7.15" length="5.00" nVehEntered="2"/>
    <interval begin="1080.00" end="1100.00" id="passage_queue_sens" nVehContrib="2" flow="360.00" occupancy="52.73" speed="1.34" harmonicMeanSpeed="1.20" length="5.00" nVehEntered="2"/>
    <interval begin="1100.00" end="1120.00" id="passage_queue_sens" nVehContrib="4" flow="720.00" occupancy="34.87" speed="2.63" harmonicMeanSpeed="1.94" length="5.00" nVehEntered="3"/>
    <interval begin="1120.00" end="1140.00" id="passage_queue_sens" nVehContrib="3" flow="540.00" occupancy="20.43" speed="4.07" harmonicMeanSpeed="3.67" length="5.00" nVehEntered="3"/>
    <interval begin="1140.00" end="1160.00" id="passage_queue_sens" nVehContrib="4" flow="720.00" occupancy="27.45" speed="3.94" harmonicMeanSpeed="3.64" length="5.00" nVehEntered="4"/>
    <interval begin="1160.00" end="1180.00" id="passage_queue_sens" nVehContrib="4" flow="720.00" occupancy="23.90" speed="4.69" harmonicMeanSpeed="4.18" length="5.00" nVehEntered="4"/>
    <interval begin="1180.00" end="1200.00" id="passage_queue_sens" nVehContrib="2" flow="360.00" occupancy="15.46" speed="4.34" harmonicMeanSpeed="3.23" length="5.00" nVehEntered="2"/>
    <interval begin="1200.00" end="1220.00" id="passage_queue_sens" nVehContrib="4" flow="720.00" occupancy="45.14" speed="2.55" harmonicMeanSpeed="2.22" length="5.00" nVehEntered="4"/>
    <interval begin="1220.00" end="1240.00" id="passage_queue_sens" nVehContrib="3" flow="540.00" occupancy="15.07" speed="5.44" harmonicMeanSpeed="4.98" length="5.00" nVehEntered="3"/>
    <interval begin="1240.00" end="1260.00" id="passage_queue_sens" nVehContrib="4" flow="720.00" occupancy="15.12" speed="7.11" harmonicMeanSpeed="6.61" length="5.00" nVehEntered="4"/>
    <interval begin="1260.00" end="1280.00" id="passage_queue_sens" nVehContrib="3" flow="540.00" occupancy="28.39" speed="3.31" harmonicMeanSpeed="2.74" length="5.00" nVehEntered="4"/>
    <interval begin="1280.00" end="1300.00" id="passage_queue_sens" nVehContrib="6" flow="1080.00" occupancy="33.51" speed="4.69" harmonicMeanSpeed="4.35" length="5.00" nVehEntered="5"/>
    <interval begin="1300.00" end="1320.00" id="passage_queue_sens" nVehContrib="2" flow="360.00" occupancy="7.34" speed="6.85" harmonicMeanSpeed="6.82" length="5.00" nVehEntered="2"/>
    <interval begin="1320.00" end="1340.00" id="passage_queue_sens" nVehContrib="1" flow="180.00" occupancy="3.57" speed="7.01" harmonicMeanSpeed="7.01" length="5.00" nVehEntered="1"/>
    <interval begin="1340.00" end="1360.00" id="passage_queue_sens" nVehContrib="1" flow="180.00" occupancy="3.33" speed="7.51" harmonicMeanSpeed="7.51" length="5.00" nVehEntered="1"/>
    <interval begin="1360.00" end="1380.00" id="passage_queue_sens" nVehContrib="2" flow="360.00" occupancy="7.71" speed="6.53" harmonicMeanSpeed="6.49" length="5.00" nVehEntered="2"/>
    <interval begin="1380.00" end="1400.00" id="passage_queue_sens" nVehContrib="2" flow="360.00" occupancy="10.77" speed="4.73" harmonicMeanSpeed="4.64" length="5.00" nVehEntered="2"/>
    <interval begin="1400.00" end="1420.00" id="passage_queue_sens" nVehContrib="2" flow="360.00" occupancy="7.54" speed="6.63" harmonicMeanSpeed="6.63" length="5.00" nVehEntered="2"/>
    <interval begin="1420.00" end="1440.00" id="passage_queue_sens" nVehContrib="1" flow="180.00" occupancy="4.73" speed="5.28" harmonicMeanSpeed="5.28" length="5.00" nVehEntered="1"/>
    <interval begin="1440.00" end="1460.00" id="passage_queue_sens" nVehContrib="1" flow="180.00" occupancy="4.72" speed="5.30" harmonicMeanSpeed="5.30" length="5.00" nVehEntered="1"/>
    <interval begin="1460.00" end="1480.00" id="passage_queue_sens" nVehContrib="2" flow="360.00" occupancy="8.04" speed="6.22" harmonicMeanSpeed="6.22" length="5.00" nVehEntered="2"/>
    <interval begin="1480.00" end="1500.00" id="passage_queue_sens" nVehContrib="1" flow="180.00" occupancy="4.47" speed="5.60" harmonicMeanSpeed="5.60" length="5.00" nVehEntered="1"/>
    <interval begin="1500.00" end="1520.00" id="passage_queue_sens" nVehContrib="1" flow="180.00" occupancy="4.01" speed="6.24" harmonicMeanSpeed="6.24" length="5.00" nVehEntered="1"/>
    <interval begin="1520.00" end="1540.00" id="passage_queue_sens" nVehContrib="3" flow="540.00" occupancy="10.75" speed="6.98" harmonicMeanSpeed="6.98" length="5.00" nVehEntered="3"/>
    <interval begin="1540.00" end="1560.00" id="passage_queue_sens" nVehContrib="2" flow="360.00" occupancy="11.30" speed="5.09" harmonicMeanSpeed="4.42" length="5.00" nVehEntered="2"/>
    <interval begin="1560.00" end="1580.00" id="passage_queue_sens" nVehContrib="4" flow="720.00" occupancy="14.56" speed="6.98" harmonicMeanSpeed="6.87" length="5.00" nVehEntered="4"/>
    <interval begin="1580.00" end="1600.00" id="passage_queue_sens" nVehContrib="4" flow="720.00" occupancy="14.38" speed="6.98" harmonicMeanSpeed="6.96" length="5.00" nVehEntered="4"/>
    <interval begin="1600.00" end="1620.00" id="passage_queue_sens" nVehContrib="4" flow="720.00" occupancy="27.92" speed="3.78" harmonicMeanSpeed="3.58" length="5.00" nVehEntered="4"/>
    <interval begin="1620.00" end="1640.00" id="passage_queue_sens" nVehContrib="1" flow="180.00" occupancy="3.84" speed="6.51" harmonicMeanSpeed="6.51" length="5.00" nVehEntered="1"/>
    <interval begin="1640.00" end="1660.00" id="passage_queue_sens" nVehContrib="3" flow="540.00" occupancy="32.74" speed="2.49" harmonicMeanSpeed="2.29" length="5.00" nVehEntered="3"/>
    <interval begin="1660.00" end="1680.00" id="passage_queue_sens" nVehContrib="5" flow="900.00" occupancy="22.41" speed="5.90" harmonicMeanSpeed="5.58" length="5.00" nVehEntered="5"/>
    <interval begin="1680.00" end="1700.00" id="passage_queue_sens" nVehContrib="4" flow="720.00" occupancy="13.71" speed="7.32" harmonicMeanSpeed="7.29" length="5.00" nVehEntered="4"/>
    <interval begin="1700.00" end="1720.00" id="passage_queue_sens" nVehContrib="1" flow="180.00" occupancy="4.53" speed="5.52" harmonicMeanSpeed="5.52" length="5.00" nVehEntered="1"/>
    <interval begin="1720.00" end="1740.00" id="passage_queue_sens" nVehContrib="4" flow="720.00" occupancy="15.94" speed="6.36" harmonicMeanSpeed="6.27" length="5.00" nVehEntered="4"/>
    <interval begin="1740.00" end="1760.00" id="passage_queue_sens" nVehContrib="3" flow="540.00" occupancy="36.79" speed="2.17" harmonicMeanSpeed="2.04" length="5.00" nVehEntered="3"/>
    <interval begin="1760.00" end="1780.00" id="passage_queue_sens" nVehContrib="4" flow="720.00" occupancy="33.59" speed="3.60" harmonicMeanSpeed="3.53" length="5.00" nVehEntered="5"/>
    <interval begin="1780.00" end="1800.00" id="passage_queue_sens" nVehContrib="6" flow="1080.00" occupancy="25.34" speed="5.12" harmonicMeanSpeed="4.91" length="5.00" nVehEntered="5"/>
    <interval begin="1800.00" end="1820.00" id="passage_queue_sens" nVehContrib="4" flow="720.00" occupancy="17.21" speed="6.34" harmonicMeanSpeed="5.81" length="5.00" nVehEntered="4"/>
    <interval begin="1820.00" end="1840.00" id="passage_queue_sens" nVehContrib="5" flow="900.00" occupancy="25.28" speed="5.05" harmonicMeanSpeed="4.95" length="5.00" nVehEntered="5"/>
    <interval begin="1840.00" end="1860.00" id="passage_queue_sens" nVehContrib="4" flow="720.00" occupancy="15.43" speed="6.56" harmonicMeanSpeed="6.48" length="5.00" nVehEntered="4"/>
    <interval begin="1860.00" end="1880.00" id="passage_queue_sens" nVehContrib="4" flow="720.00" occupancy="26.18" speed="3.87" harmonicMeanSpeed="3.82" length="5.00" nVehEntered="4"/>
    <interval begin="1880.00" end="1900.00" id="passage_queue_sens" nVehContrib="3" flow="540.00" occupancy="31.73" speed="2.41" harmonicMeanSpeed="2.36" length="5.00" nVehEntered="3"/>
    <interval begin="1900.00" end="1920.00" id="passage_queue_sens" nVehContrib="4" flow="720.00" occupancy="28.05" speed="4.83" harmonicMeanSpeed="4.02" length="5.00" nVehEntered="5"/>
    <interval begin="1920.00" end="1940.00" id="passage_queue_sens" nVehContrib="5" flow="900.00" occupancy="23.11" speed="5.30" harmonicMeanSpeed="4.76" length="5.00" nVehEntered="4"/>
    <interval begin="1940.00" end="1960.00" id="passage_queue_sens" nVehContrib="3" flow="540.00" occupancy="19.04" speed="4.35" harmonicMeanSpeed="3.94" length="5.00" nVehEntered="3"/>
    <interval begin="1960.00" end="1980.00" id="passage_queue_sens" nVehContrib="3" flow="540.00" occupancy="10.34" speed="7.32" harmonicMeanSpeed="7.25" length="5.00" nVehEntered="3"/>
    <interval begin="1980.00" end="2000.00" id="passage_queue_sens" nVehContrib="1" flow="180.00" occupancy="3.48" speed="7.19" harmonicMeanSpeed="7.19" length="5.00" nVehEntered="1"/>
    <interval begin="2000.00" end="2020.00" id="passage_queue_sens" nVehContrib="3" flow="540.00" occupancy="10.53" speed="7.23" harmonicMeanSpeed="7.12" length="5.00" nVehEntered="3"/>
    <interval begin="2020.00" end="2040.00" id="passage_queue_sens" nVehContrib="5" flow="900.00" occupancy="16.06" speed="7.93" harmonicMeanSpeed="7.78" length="5.00" nVehEntered="5"/>
    <interval begin="2040.00" end="2060.00" id="passage_queue_sens" nVehContrib="3" flow="540.00" occupancy="19.96" speed="5.00" harmonicMeanSpeed="3.76" length="5.00" nVehEntered="3"/>
    <interval begin="2060.00" end="2080.00" id="passage_queue_sens" nVehContrib="5" flow="900.00" occupancy="24.50" speed="5.35" harmonicMeanSpeed="5.10" length="5.00" nVehEntered="5"/>
    <interval begin="2080.00" end="2100.00" id="passage_queue_sens" nVehContrib="2" flow="360.00" occupancy="7.83" speed="6.44" harmonicMeanSpeed="6.38" length="5.00" nVehEntered="2"/>
    <interval begin="2100.00" end="2120.00" id="passage_queue_sens" nVehContrib="2" flow="360.00" occupancy="25.90" speed="2.09" harmonicMeanSpeed="1.93" length="5.00" nVehEntered="2"/>
    <interval begin="2120.00" end="2140.00" id="passage_queue_sens" nVehContrib="2" flow="360.00" occupancy="31.52" speed="1.61" harmonicMeanSpeed="1.59" length="5.00" nVehEntered="2"/>
    <interval begin="2140.00" end="2160.00" id="passage_queue_sens" nVehContrib="3" flow="540.00" occupancy="40.01" speed="1.90" harmonicMeanSpeed="1.87" length="5.00" nVehEntered="3"/>
    <interval begin="2160.00" end="2180.00" id="passage_queue_sens" nVehContrib="3" flow="540.00" occupancy="17.09" speed="5.29" harmonicMeanSpeed="5.20" length="5.00" nVehEntered="4"/>
    <interval begin="2180.00" end="2200.00" id="passage_queue_sens" nVehContrib="4" flow="720.00" occupancy="34.98" speed="2.92" harmonicMeanSpeed="2.66" length="5.00" nVehEntered="3"/>
    <interval begin="2200.00" end="2220.00" id="passage_queue_sens" nVehContrib="1" flow="180.00" occupancy="15.31" speed="5.95" harmonicMeanSpeed="5.95" length="5.00" nVehEntered="2"/>
    <interval begin="2220.00" end="2240.00" id="passage_queue_sens" nVehContrib="4" flow="720.00" occupancy="44.23" speed="1.91" harmonicMeanSpeed="1.81" length="5.00" nVehEntered="3"/>
    <interval begin="2240.00" end="2260.00" id="passage_queue_sens" nVehContrib="1" flow="180.00" occupancy="4.45" speed="5.62" harmonicMeanSpeed="5.62" length="5.00" nVehEntered="1"/>
    <interval begin="2260.00" end="2280.00" id="passage_queue_sens" nVehContrib="1" flow="180.00" occupancy="4.20" speed="5.96" harmonicMeanSpeed="5.96" length="5.00" nVehEntered="1"/>
    <interval begin="2280.00" end="2300.00" id="passage_queue_sens" nVehContrib="2" flow="360.00" occupancy="9.49" speed="5.32" harmonicMeanSpeed="5.27" length="5.00" nVehEntered="2"/>
    <interval begin="2300.00" end="2320.00" id="passage_queue_sens" nVehContrib="3" flow="540.00" occupancy="20.40" speed="3.76" harmonicMeanSpeed="3.68" length="5.00" nVehEntered="3"/>
    <interval begin="2320.00" end="2340.00" id="passage_queue_sens" nVehContrib="5" flow="900.00" occupancy="22.57" speed="5.73" harmonicMeanSpeed="5.54" length="5.00" nVehEntered="5"/>
    <interval begin="2340.00" end="2348.00" id="passage_queue_sens" nVehContrib="2" flow="900.00" occupancy="16.42" speed="7.64" harmonicMeanSpeed="7.61" length="5.00" nVehEntered="2"/>
</detector>
