<?xml version="1.0" encoding="UTF-8"?>

<!-- generated on 2025-03-20 14:34:31 by Eclipse SUMO GUI Version 1.18.0
<configuration xmlns:xsi="http://www.w3.org/2001/XMLSchema-instance" xsi:noNamespaceSchemaLocation="http://sumo.dlr.de/xsd/sumoConfiguration.xsd">

    <input>
        <net-file value="data/1ramp_1x3/ramp.net.xml"/>
        <route-files value="data/1ramp_1x3/ramp.rou.xml"/>
        <additional-files value="data/1ramp_1x3/ramp.add.xml"/>
    </input>

    <traci_server>
        <remote-port value="39157"/>
    </traci_server>

    <random_number>
        <seed value="42"/>
    </random_number>

    <gui_only>
        <gui-settings-file value="data/1ramp_1x3/ramp.view.xml"/>
    </gui_only>

</configuration>
-->

<detector xmlns:xsi="http://www.w3.org/2001/XMLSchema-instance" xsi:noNamespaceSchemaLocation="http://sumo.dlr.de/xsd/det_e1_file.xsd">
    <interval begin="0.00" end="20.00" id="passage_queue_sens" nVehContrib="1" flow="180.00" occupancy="1.81" speed="13.79" harmonicMeanSpeed="13.79" length="5.00" nVehEntered="1"/>
    <interval begin="20.00" end="40.00" id="passage_queue_sens" nVehContrib="2" flow="360.00" occupancy="8.96" speed="8.54" harmonicMeanSpeed="5.58" length="5.00" nVehEntered="2"/>
    <interval begin="40.00" end="60.00" id="passage_queue_sens" nVehContrib="3" flow="540.00" occupancy="19.52" speed="3.91" harmonicMeanSpeed="3.84" length="5.00" nVehEntered="3"/>
    <interval begin="60.00" end="79.00" id="passage_queue_sens" nVehContrib="2" flow="378.95" occupancy="8.37" speed="6.41" harmonicMeanSpeed="6.29" length="5.00" nVehEntered="2"/>
</detector>
