<?xml version="1.0" encoding="UTF-8"?>

<!-- generated on 2025-03-18 10:33:30 by Eclipse SUMO GUI Version 1.18.0
<configuration xmlns:xsi="http://www.w3.org/2001/XMLSchema-instance" xsi:noNamespaceSchemaLocation="http://sumo.dlr.de/xsd/sumoConfiguration.xsd">

    <input>
        <net-file value="data/1ramp_1x3/ramp.net.xml"/>
        <route-files value="data/1ramp_1x3/ramp.rou.xml"/>
        <additional-files value="data/1ramp_1x3/ramp.add.xml"/>
    </input>

    <traci_server>
        <remote-port value="37667"/>
    </traci_server>

    <gui_only>
        <gui-settings-file value="data/1ramp_1x3/ramp.view.xml"/>
    </gui_only>

</configuration>
-->

<detector xmlns:xsi="http://www.w3.org/2001/XMLSchema-instance" xsi:noNamespaceSchemaLocation="http://sumo.dlr.de/xsd/det_e1_file.xsd">
    <interval begin="0.00" end="20.00" id="queue_sens" nVehContrib="1" flow="180.00" occupancy="4.37" speed="5.71" harmonicMeanSpeed="5.71" length="5.00" nVehEntered="1"/>
    <interval begin="20.00" end="40.00" id="queue_sens" nVehContrib="0" flow="0.00" occupancy="0.00" speed="-1.00" harmonicMeanSpeed="-1.00" length="-1.00" nVehEntered="0"/>
    <interval begin="40.00" end="60.00" id="queue_sens" nVehContrib="0" flow="0.00" occupancy="0.00" speed="-1.00" harmonicMeanSpeed="-1.00" length="-1.00" nVehEntered="0"/>
    <interval begin="60.00" end="80.00" id="queue_sens" nVehContrib="0" flow="0.00" occupancy="0.00" speed="-1.00" harmonicMeanSpeed="-1.00" length="-1.00" nVehEntered="0"/>
    <interval begin="80.00" end="100.00" id="queue_sens" nVehContrib="0" flow="0.00" occupancy="0.00" speed="-1.00" harmonicMeanSpeed="-1.00" length="-1.00" nVehEntered="0"/>
    <interval begin="100.00" end="120.00" id="queue_sens" nVehContrib="0" flow="0.00" occupancy="0.00" speed="-1.00" harmonicMeanSpeed="-1.00" length="-1.00" nVehEntered="0"/>
    <interval begin="120.00" end="140.00" id="queue_sens" nVehContrib="0" flow="0.00" occupancy="0.00" speed="-1.00" harmonicMeanSpeed="-1.00" length="-1.00" nVehEntered="0"/>
    <interval begin="140.00" end="160.00" id="queue_sens" nVehContrib="0" flow="0.00" occupancy="0.00" speed="-1.00" harmonicMeanSpeed="-1.00" length="-1.00" nVehEntered="0"/>
    <interval begin="160.00" end="180.00" id="queue_sens" nVehContrib="0" flow="0.00" occupancy="0.00" speed="-1.00" harmonicMeanSpeed="-1.00" length="-1.00" nVehEntered="0"/>
    <interval begin="180.00" end="200.00" id="queue_sens" nVehContrib="0" flow="0.00" occupancy="0.00" speed="-1.00" harmonicMeanSpeed="-1.00" length="-1.00" nVehEntered="0"/>
    <interval begin="200.00" end="220.00" id="queue_sens" nVehContrib="1" flow="180.00" occupancy="2.92" speed="8.56" harmonicMeanSpeed="8.56" length="5.00" nVehEntered="1"/>
    <interval begin="220.00" end="240.00" id="queue_sens" nVehContrib="1" flow="180.00" occupancy="12.54" speed="1.99" harmonicMeanSpeed="1.99" length="5.00" nVehEntered="1"/>
    <interval begin="240.00" end="260.00" id="queue_sens" nVehContrib="0" flow="0.00" occupancy="0.00" speed="-1.00" harmonicMeanSpeed="-1.00" length="-1.00" nVehEntered="0"/>
    <interval begin="260.00" end="280.00" id="queue_sens" nVehContrib="0" flow="0.00" occupancy="0.00" speed="-1.00" harmonicMeanSpeed="-1.00" length="-1.00" nVehEntered="0"/>
    <interval begin="280.00" end="300.00" id="queue_sens" nVehContrib="0" flow="0.00" occupancy="0.00" speed="-1.00" harmonicMeanSpeed="-1.00" length="-1.00" nVehEntered="0"/>
    <interval begin="300.00" end="320.00" id="queue_sens" nVehContrib="0" flow="0.00" occupancy="0.00" speed="-1.00" harmonicMeanSpeed="-1.00" length="-1.00" nVehEntered="0"/>
    <interval begin="320.00" end="340.00" id="queue_sens" nVehContrib="0" flow="0.00" occupancy="0.00" speed="-1.00" harmonicMeanSpeed="-1.00" length="-1.00" nVehEntered="0"/>
    <interval begin="340.00" end="360.00" id="queue_sens" nVehContrib="0" flow="0.00" occupancy="0.00" speed="-1.00" harmonicMeanSpeed="-1.00" length="-1.00" nVehEntered="0"/>
    <interval begin="360.00" end="380.00" id="queue_sens" nVehContrib="0" flow="0.00" occupancy="0.00" speed="-1.00" harmonicMeanSpeed="-1.00" length="-1.00" nVehEntered="0"/>
    <interval begin="380.00" end="400.00" id="queue_sens" nVehContrib="0" flow="0.00" occupancy="0.00" speed="-1.00" harmonicMeanSpeed="-1.00" length="-1.00" nVehEntered="0"/>
    <interval begin="400.00" end="420.00" id="queue_sens" nVehContrib="1" flow="180.00" occupancy="4.49" speed="5.56" harmonicMeanSpeed="5.56" length="5.00" nVehEntered="1"/>
    <interval begin="420.00" end="440.00" id="queue_sens" nVehContrib="0" flow="0.00" occupancy="0.00" speed="-1.00" harmonicMeanSpeed="-1.00" length="-1.00" nVehEntered="0"/>
    <interval begin="440.00" end="460.00" id="queue_sens" nVehContrib="1" flow="180.00" occupancy="5.25" speed="4.76" harmonicMeanSpeed="4.76" length="5.00" nVehEntered="1"/>
    <interval begin="460.00" end="480.00" id="queue_sens" nVehContrib="1" flow="180.00" occupancy="8.54" speed="2.93" harmonicMeanSpeed="2.93" length="5.00" nVehEntered="1"/>
    <interval begin="480.00" end="500.00" id="queue_sens" nVehContrib="0" flow="0.00" occupancy="0.00" speed="-1.00" harmonicMeanSpeed="-1.00" length="-1.00" nVehEntered="0"/>
    <interval begin="500.00" end="520.00" id="queue_sens" nVehContrib="0" flow="0.00" occupancy="0.00" speed="-1.00" harmonicMeanSpeed="-1.00" length="-1.00" nVehEntered="0"/>
    <interval begin="520.00" end="540.00" id="queue_sens" nVehContrib="1" flow="180.00" occupancy="12.15" speed="2.06" harmonicMeanSpeed="2.06" length="5.00" nVehEntered="1"/>
    <interval begin="540.00" end="560.00" id="queue_sens" nVehContrib="1" flow="180.00" occupancy="4.48" speed="5.58" harmonicMeanSpeed="5.58" length="5.00" nVehEntered="1"/>
    <interval begin="560.00" end="580.00" id="queue_sens" nVehContrib="0" flow="0.00" occupancy="0.00" speed="-1.00" harmonicMeanSpeed="-1.00" length="-1.00" nVehEntered="0"/>
    <interval begin="580.00" end="600.00" id="queue_sens" nVehContrib="0" flow="0.00" occupancy="0.00" speed="-1.00" harmonicMeanSpeed="-1.00" length="-1.00" nVehEntered="0"/>
    <interval begin="600.00" end="620.00" id="queue_sens" nVehContrib="0" flow="0.00" occupancy="0.00" speed="-1.00" harmonicMeanSpeed="-1.00" length="-1.00" nVehEntered="0"/>
    <interval begin="620.00" end="640.00" id="queue_sens" nVehContrib="0" flow="0.00" occupancy="0.00" speed="-1.00" harmonicMeanSpeed="-1.00" length="-1.00" nVehEntered="0"/>
    <interval begin="640.00" end="660.00" id="queue_sens" nVehContrib="0" flow="0.00" occupancy="0.00" speed="-1.00" harmonicMeanSpeed="-1.00" length="-1.00" nVehEntered="0"/>
    <interval begin="660.00" end="680.00" id="queue_sens" nVehContrib="0" flow="0.00" occupancy="0.00" speed="-1.00" harmonicMeanSpeed="-1.00" length="-1.00" nVehEntered="0"/>
    <interval begin="680.00" end="700.00" id="queue_sens" nVehContrib="0" flow="0.00" occupancy="0.00" speed="-1.00" harmonicMeanSpeed="-1.00" length="-1.00" nVehEntered="0"/>
    <interval begin="700.00" end="720.00" id="queue_sens" nVehContrib="0" flow="0.00" occupancy="0.00" speed="-1.00" harmonicMeanSpeed="-1.00" length="-1.00" nVehEntered="0"/>
    <interval begin="720.00" end="740.00" id="queue_sens" nVehContrib="0" flow="0.00" occupancy="0.00" speed="-1.00" harmonicMeanSpeed="-1.00" length="-1.00" nVehEntered="0"/>
    <interval begin="740.00" end="760.00" id="queue_sens" nVehContrib="1" flow="180.00" occupancy="4.73" speed="5.28" harmonicMeanSpeed="5.28" length="5.00" nVehEntered="1"/>
    <interval begin="760.00" end="780.00" id="queue_sens" nVehContrib="0" flow="0.00" occupancy="0.00" speed="-1.00" harmonicMeanSpeed="-1.00" length="-1.00" nVehEntered="0"/>
    <interval begin="780.00" end="800.00" id="queue_sens" nVehContrib="0" flow="0.00" occupancy="0.00" speed="-1.00" harmonicMeanSpeed="-1.00" length="-1.00" nVehEntered="0"/>
    <interval begin="800.00" end="820.00" id="queue_sens" nVehContrib="0" flow="0.00" occupancy="0.00" speed="-1.00" harmonicMeanSpeed="-1.00" length="-1.00" nVehEntered="0"/>
    <interval begin="820.00" end="840.00" id="queue_sens" nVehContrib="2" flow="360.00" occupancy="10.88" speed="4.91" harmonicMeanSpeed="4.60" length="5.00" nVehEntered="2"/>
    <interval begin="840.00" end="860.00" id="queue_sens" nVehContrib="0" flow="0.00" occupancy="0.00" speed="-1.00" harmonicMeanSpeed="-1.00" length="-1.00" nVehEntered="0"/>
    <interval begin="860.00" end="880.00" id="queue_sens" nVehContrib="0" flow="0.00" occupancy="0.00" speed="-1.00" harmonicMeanSpeed="-1.00" length="-1.00" nVehEntered="0"/>
    <interval begin="880.00" end="900.00" id="queue_sens" nVehContrib="0" flow="0.00" occupancy="0.00" speed="-1.00" harmonicMeanSpeed="-1.00" length="-1.00" nVehEntered="0"/>
    <interval begin="900.00" end="920.00" id="queue_sens" nVehContrib="0" flow="0.00" occupancy="0.00" speed="-1.00" harmonicMeanSpeed="-1.00" length="-1.00" nVehEntered="0"/>
    <interval begin="920.00" end="940.00" id="queue_sens" nVehContrib="0" flow="0.00" occupancy="0.00" speed="-1.00" harmonicMeanSpeed="-1.00" length="-1.00" nVehEntered="0"/>
    <interval begin="940.00" end="960.00" id="queue_sens" nVehContrib="1" flow="180.00" occupancy="6.08" speed="4.12" harmonicMeanSpeed="4.12" length="5.00" nVehEntered="1"/>
    <interval begin="960.00" end="980.00" id="queue_sens" nVehContrib="2" flow="360.00" occupancy="11.95" speed="4.51" harmonicMeanSpeed="4.18" length="5.00" nVehEntered="2"/>
    <interval begin="980.00" end="1000.00" id="queue_sens" nVehContrib="0" flow="0.00" occupancy="0.00" speed="-1.00" harmonicMeanSpeed="-1.00" length="-1.00" nVehEntered="0"/>
    <interval begin="1000.00" end="1020.00" id="queue_sens" nVehContrib="1" flow="180.00" occupancy="9.23" speed="2.71" harmonicMeanSpeed="2.71" length="5.00" nVehEntered="1"/>
    <interval begin="1020.00" end="1040.00" id="queue_sens" nVehContrib="1" flow="180.00" occupancy="9.17" speed="2.73" harmonicMeanSpeed="2.73" length="5.00" nVehEntered="1"/>
    <interval begin="1040.00" end="1060.00" id="queue_sens" nVehContrib="2" flow="360.00" occupancy="14.71" speed="3.49" harmonicMeanSpeed="3.40" length="5.00" nVehEntered="2"/>
    <interval begin="1060.00" end="1080.00" id="queue_sens" nVehContrib="2" flow="360.00" occupancy="18.72" speed="2.76" harmonicMeanSpeed="2.67" length="5.00" nVehEntered="2"/>
    <interval begin="1080.00" end="1100.00" id="queue_sens" nVehContrib="1" flow="180.00" occupancy="7.72" speed="3.24" harmonicMeanSpeed="3.24" length="5.00" nVehEntered="1"/>
    <interval begin="1100.00" end="1120.00" id="queue_sens" nVehContrib="0" flow="0.00" occupancy="0.00" speed="-1.00" harmonicMeanSpeed="-1.00" length="-1.00" nVehEntered="0"/>
    <interval begin="1120.00" end="1140.00" id="queue_sens" nVehContrib="2" flow="360.00" occupancy="18.27" speed="2.83" harmonicMeanSpeed="2.74" length="5.00" nVehEntered="2"/>
    <interval begin="1140.00" end="1160.00" id="queue_sens" nVehContrib="1" flow="180.00" occupancy="10.22" speed="2.45" harmonicMeanSpeed="2.45" length="5.00" nVehEntered="1"/>
    <interval begin="1160.00" end="1180.00" id="queue_sens" nVehContrib="1" flow="180.00" occupancy="5.37" speed="4.65" harmonicMeanSpeed="4.65" length="5.00" nVehEntered="1"/>
    <interval begin="1180.00" end="1200.00" id="queue_sens" nVehContrib="1" flow="180.00" occupancy="7.96" speed="3.14" harmonicMeanSpeed="3.14" length="5.00" nVehEntered="1"/>
    <interval begin="1200.00" end="1220.00" id="queue_sens" nVehContrib="0" flow="0.00" occupancy="0.00" speed="-1.00" harmonicMeanSpeed="-1.00" length="-1.00" nVehEntered="0"/>
    <interval begin="1220.00" end="1240.00" id="queue_sens" nVehContrib="0" flow="0.00" occupancy="0.00" speed="-1.00" harmonicMeanSpeed="-1.00" length="-1.00" nVehEntered="0"/>
    <interval begin="1240.00" end="1260.00" id="queue_sens" nVehContrib="0" flow="0.00" occupancy="0.00" speed="-1.00" harmonicMeanSpeed="-1.00" length="-1.00" nVehEntered="0"/>
    <interval begin="1260.00" end="1280.00" id="queue_sens" nVehContrib="2" flow="360.00" occupancy="12.78" speed="4.10" harmonicMeanSpeed="3.91" length="5.00" nVehEntered="2"/>
    <interval begin="1280.00" end="1300.00" id="queue_sens" nVehContrib="1" flow="180.00" occupancy="10.19" speed="2.45" harmonicMeanSpeed="2.45" length="5.00" nVehEntered="1"/>
    <interval begin="1300.00" end="1320.00" id="queue_sens" nVehContrib="2" flow="360.00" occupancy="14.54" speed="3.54" harmonicMeanSpeed="3.44" length="5.00" nVehEntered="2"/>
    <interval begin="1320.00" end="1340.00" id="queue_sens" nVehContrib="1" flow="180.00" occupancy="7.71" speed="3.24" harmonicMeanSpeed="3.24" length="5.00" nVehEntered="1"/>
    <interval begin="1340.00" end="1360.00" id="queue_sens" nVehContrib="0" flow="0.00" occupancy="0.00" speed="-1.00" harmonicMeanSpeed="-1.00" length="-1.00" nVehEntered="0"/>
    <interval begin="1360.00" end="1380.00" id="queue_sens" nVehContrib="1" flow="180.00" occupancy="9.44" speed="2.65" harmonicMeanSpeed="2.65" length="5.00" nVehEntered="1"/>
    <interval begin="1380.00" end="1400.00" id="queue_sens" nVehContrib="1" flow="180.00" occupancy="5.49" speed="4.55" harmonicMeanSpeed="4.55" length="5.00" nVehEntered="1"/>
    <interval begin="1400.00" end="1420.00" id="queue_sens" nVehContrib="2" flow="360.00" occupancy="27.12" speed="1.87" harmonicMeanSpeed="1.84" length="5.00" nVehEntered="2"/>
    <interval begin="1420.00" end="1440.00" id="queue_sens" nVehContrib="0" flow="0.00" occupancy="0.00" speed="-1.00" harmonicMeanSpeed="-1.00" length="-1.00" nVehEntered="0"/>
    <interval begin="1440.00" end="1460.00" id="queue_sens" nVehContrib="1" flow="180.00" occupancy="9.14" speed="2.73" harmonicMeanSpeed="2.73" length="5.00" nVehEntered="1"/>
    <interval begin="1460.00" end="1480.00" id="queue_sens" nVehContrib="2" flow="360.00" occupancy="13.54" speed="3.73" harmonicMeanSpeed="3.69" length="5.00" nVehEntered="2"/>
    <interval begin="1480.00" end="1500.00" id="queue_sens" nVehContrib="0" flow="0.00" occupancy="15.00" speed="-1.00" harmonicMeanSpeed="-1.00" length="-1.00" nVehEntered="1"/>
    <interval begin="1500.00" end="1520.00" id="queue_sens" nVehContrib="2" flow="360.00" occupancy="36.16" speed="1.15" harmonicMeanSpeed="0.98" length="5.00" nVehEntered="1"/>
    <interval begin="1520.00" end="1540.00" id="queue_sens" nVehContrib="0" flow="0.00" occupancy="0.00" speed="-1.00" harmonicMeanSpeed="-1.00" length="-1.00" nVehEntered="0"/>
    <interval begin="1540.00" end="1560.00" id="queue_sens" nVehContrib="1" flow="180.00" occupancy="5.09" speed="4.91" harmonicMeanSpeed="4.91" length="5.00" nVehEntered="1"/>
    <interval begin="1560.00" end="1580.00" id="queue_sens" nVehContrib="1" flow="180.00" occupancy="8.88" speed="5.38" harmonicMeanSpeed="5.38" length="5.00" nVehEntered="2"/>
    <interval begin="1580.00" end="1600.00" id="queue_sens" nVehContrib="1" flow="180.00" occupancy="2.00" speed="4.01" harmonicMeanSpeed="4.01" length="5.00" nVehEntered="0"/>
    <interval begin="1600.00" end="1620.00" id="queue_sens" nVehContrib="2" flow="360.00" occupancy="16.66" speed="3.06" harmonicMeanSpeed="3.00" length="5.00" nVehEntered="2"/>
    <interval begin="1620.00" end="1640.00" id="queue_sens" nVehContrib="1" flow="180.00" occupancy="7.22" speed="3.46" harmonicMeanSpeed="3.46" length="5.00" nVehEntered="1"/>
    <interval begin="1640.00" end="1660.00" id="queue_sens" nVehContrib="1" flow="180.00" occupancy="8.95" speed="2.79" harmonicMeanSpeed="2.79" length="5.00" nVehEntered="1"/>
    <interval begin="1660.00" end="1680.00" id="queue_sens" nVehContrib="2" flow="360.00" occupancy="16.90" speed="3.00" harmonicMeanSpeed="2.96" length="5.00" nVehEntered="2"/>
    <interval begin="1680.00" end="1700.00" id="queue_sens" nVehContrib="0" flow="0.00" occupancy="2.37" speed="-1.00" harmonicMeanSpeed="-1.00" length="-1.00" nVehEntered="1"/>
    <interval begin="1700.00" end="1720.00" id="queue_sens" nVehContrib="2" flow="360.00" occupancy="7.57" speed="5.09" harmonicMeanSpeed="5.03" length="5.00" nVehEntered="1"/>
    <interval begin="1720.00" end="1740.00" id="queue_sens" nVehContrib="0" flow="0.00" occupancy="0.00" speed="-1.00" harmonicMeanSpeed="-1.00" length="-1.00" nVehEntered="0"/>
    <interval begin="1740.00" end="1760.00" id="queue_sens" nVehContrib="4" flow="720.00" occupancy="26.82" speed="3.85" harmonicMeanSpeed="3.73" length="5.00" nVehEntered="4"/>
    <interval begin="1760.00" end="1780.00" id="queue_sens" nVehContrib="0" flow="0.00" occupancy="0.00" speed="-1.00" harmonicMeanSpeed="-1.00" length="-1.00" nVehEntered="0"/>
    <interval begin="1780.00" end="1800.00" id="queue_sens" nVehContrib="0" flow="0.00" occupancy="0.00" speed="-1.00" harmonicMeanSpeed="-1.00" length="-1.00" nVehEntered="0"/>
    <interval begin="1800.00" end="1820.00" id="queue_sens" nVehContrib="0" flow="0.00" occupancy="0.00" speed="-1.00" harmonicMeanSpeed="-1.00" length="-1.00" nVehEntered="0"/>
    <interval begin="1820.00" end="1840.00" id="queue_sens" nVehContrib="1" flow="180.00" occupancy="12.04" speed="2.08" harmonicMeanSpeed="2.08" length="5.00" nVehEntered="1"/>
    <interval begin="1840.00" end="1860.00" id="queue_sens" nVehContrib="1" flow="180.00" occupancy="5.44" speed="4.59" harmonicMeanSpeed="4.59" length="5.00" nVehEntered="1"/>
    <interval begin="1860.00" end="1880.00" id="queue_sens" nVehContrib="2" flow="360.00" occupancy="12.36" speed="4.05" harmonicMeanSpeed="4.04" length="5.00" nVehEntered="2"/>
    <interval begin="1880.00" end="1900.00" id="queue_sens" nVehContrib="0" flow="0.00" occupancy="0.00" speed="-1.00" harmonicMeanSpeed="-1.00" length="-1.00" nVehEntered="0"/>
    <interval begin="1900.00" end="1920.00" id="queue_sens" nVehContrib="2" flow="360.00" occupancy="14.66" speed="3.79" harmonicMeanSpeed="3.41" length="5.00" nVehEntered="2"/>
    <interval begin="1920.00" end="1940.00" id="queue_sens" nVehContrib="1" flow="180.00" occupancy="6.96" speed="3.59" harmonicMeanSpeed="3.59" length="5.00" nVehEntered="1"/>
    <interval begin="1940.00" end="1960.00" id="queue_sens" nVehContrib="1" flow="180.00" occupancy="9.71" speed="2.58" harmonicMeanSpeed="2.58" length="5.00" nVehEntered="1"/>
    <interval begin="1960.00" end="1980.00" id="queue_sens" nVehContrib="1" flow="180.00" occupancy="8.06" speed="3.10" harmonicMeanSpeed="3.10" length="5.00" nVehEntered="1"/>
    <interval begin="1980.00" end="2000.00" id="queue_sens" nVehContrib="0" flow="0.00" occupancy="0.00" speed="-1.00" harmonicMeanSpeed="-1.00" length="-1.00" nVehEntered="0"/>
    <interval begin="2000.00" end="2020.00" id="queue_sens" nVehContrib="0" flow="0.00" occupancy="0.00" speed="-1.00" harmonicMeanSpeed="-1.00" length="-1.00" nVehEntered="0"/>
    <interval begin="2020.00" end="2040.00" id="queue_sens" nVehContrib="1" flow="180.00" occupancy="19.12" speed="2.74" harmonicMeanSpeed="2.74" length="5.00" nVehEntered="2"/>
    <interval begin="2040.00" end="2060.00" id="queue_sens" nVehContrib="1" flow="180.00" occupancy="0.53" speed="2.37" harmonicMeanSpeed="2.37" length="5.00" nVehEntered="0"/>
    <interval begin="2060.00" end="2080.00" id="queue_sens" nVehContrib="2" flow="360.00" occupancy="14.84" speed="3.95" harmonicMeanSpeed="3.37" length="5.00" nVehEntered="2"/>
    <interval begin="2080.00" end="2100.00" id="queue_sens" nVehContrib="1" flow="180.00" occupancy="5.06" speed="4.94" harmonicMeanSpeed="4.94" length="5.00" nVehEntered="1"/>
    <interval begin="2100.00" end="2120.00" id="queue_sens" nVehContrib="2" flow="360.00" occupancy="17.73" speed="2.83" harmonicMeanSpeed="2.82" length="5.00" nVehEntered="2"/>
    <interval begin="2120.00" end="2140.00" id="queue_sens" nVehContrib="1" flow="180.00" occupancy="5.01" speed="4.99" harmonicMeanSpeed="4.99" length="5.00" nVehEntered="1"/>
    <interval begin="2140.00" end="2160.00" id="queue_sens" nVehContrib="2" flow="360.00" occupancy="13.49" speed="3.71" harmonicMeanSpeed="3.71" length="5.00" nVehEntered="2"/>
    <interval begin="2160.00" end="2180.00" id="queue_sens" nVehContrib="0" flow="0.00" occupancy="0.00" speed="-1.00" harmonicMeanSpeed="-1.00" length="-1.00" nVehEntered="0"/>
    <interval begin="2180.00" end="2200.00" id="queue_sens" nVehContrib="1" flow="180.00" occupancy="5.75" speed="4.35" harmonicMeanSpeed="4.35" length="5.00" nVehEntered="1"/>
    <interval begin="2200.00" end="2220.00" id="queue_sens" nVehContrib="2" flow="360.00" occupancy="13.89" speed="3.70" harmonicMeanSpeed="3.60" length="5.00" nVehEntered="2"/>
    <interval begin="2220.00" end="2240.00" id="queue_sens" nVehContrib="2" flow="360.00" occupancy="18.12" speed="2.97" harmonicMeanSpeed="2.76" length="5.00" nVehEntered="2"/>
    <interval begin="2240.00" end="2260.00" id="queue_sens" nVehContrib="1" flow="180.00" occupancy="6.51" speed="3.84" harmonicMeanSpeed="3.84" length="5.00" nVehEntered="1"/>
    <interval begin="2260.00" end="2280.00" id="queue_sens" nVehContrib="3" flow="540.00" occupancy="26.74" speed="3.66" harmonicMeanSpeed="2.81" length="5.00" nVehEntered="3"/>
    <interval begin="2280.00" end="2300.00" id="queue_sens" nVehContrib="1" flow="180.00" occupancy="9.44" speed="2.65" harmonicMeanSpeed="2.65" length="5.00" nVehEntered="1"/>
    <interval begin="2300.00" end="2320.00" id="queue_sens" nVehContrib="0" flow="0.00" occupancy="0.00" speed="-1.00" harmonicMeanSpeed="-1.00" length="-1.00" nVehEntered="0"/>
    <interval begin="2320.00" end="2340.00" id="queue_sens" nVehContrib="0" flow="0.00" occupancy="0.00" speed="-1.00" harmonicMeanSpeed="-1.00" length="-1.00" nVehEntered="0"/>
    <interval begin="2340.00" end="2348.00" id="queue_sens" nVehContrib="0" flow="0.00" occupancy="0.00" speed="-1.00" harmonicMeanSpeed="-1.00" length="-1.00" nVehEntered="0"/>
</detector>
